xxx                                                                     
Freq      RB3LYP                                                      6-31G(d)            
Number of atoms                            I               24
Info1-9                                    I   N=           9
          34          33        1002           0           0         100
           6          18        -502
Full Title                                 C   N=           1
xxx         
Route                                      C   N=           2
# B3LYP/6-31G* opt freq 
Charge                                     I                0
Multiplicity                               I                1
Number of electrons                        I               94
Number of alpha electrons                  I               47
Number of beta electrons                   I               47
Number of basis functions                  I              230
Number of independent functions            I              230
Number of point charges in /Mol/           I                0
Number of translation vectors              I                0
Atomic numbers                             I   N=          24
           6           6           6           6           6           6
           6           6           6           6           6           1
           6           6           6           1           1           1
           1           1           1           1           1           1
Nuclear charges                            R   N=          24
  6.00000000E+00  6.00000000E+00  6.00000000E+00  6.00000000E+00  6.00000000E+00
  6.00000000E+00  6.00000000E+00  6.00000000E+00  6.00000000E+00  6.00000000E+00
  6.00000000E+00  1.00000000E+00  6.00000000E+00  6.00000000E+00  6.00000000E+00
  1.00000000E+00  1.00000000E+00  1.00000000E+00  1.00000000E+00  1.00000000E+00
  1.00000000E+00  1.00000000E+00  1.00000000E+00  1.00000000E+00
Current cartesian coordinates              R   N=          72
  6.91748749E+00  1.34764061E+00  3.06738159E-04  4.68549027E+00  2.65897561E+00
 -3.82568204E-05  2.31280613E+00  1.36556381E+00 -2.58122407E-04  2.31279981E+00
 -1.36554013E+00 -1.90533102E-04  4.68547481E+00 -2.65897929E+00 -4.67660786E-05
  6.91748003E+00 -1.34766340E+00  3.18633982E-04 -3.94599151E-07  2.65214030E+00
 -1.23231324E-04 -2.47389457E-07 -2.65212558E+00 -2.59288608E-04 -2.31279724E+00
 -1.36553745E+00 -1.87168613E-04 -2.31280860E+00  1.36557002E+00 -2.22536008E-04
 -4.68549181E+00  2.65897355E+00 -6.19754244E-05 -4.68060243E+00  4.71415291E+00
 -1.29074320E-04 -6.91749309E+00  1.34763972E+00  3.02226595E-04 -6.91747746E+00
 -1.34766840E+00  3.17509093E-04 -4.68547093E+00 -2.65897788E+00 -7.60096390E-05
  1.16811821E-05  4.70887311E+00 -3.99376651E-04  8.70639255E+00  2.35589796E+00
  5.78716706E-04  4.68058903E+00  4.71415200E+00 -2.12818042E-04  4.68055854E+00
 -4.71415441E+00 -1.05393213E-04  8.70638049E+00 -2.35593447E+00  7.39291556E-04
 -3.26115419E-07 -4.70884962E+00 -4.59385849E-04 -8.70639839E+00  2.35589164E+00
  5.41549870E-04 -8.70637481E+00 -2.35594474E+00  8.70348056E-04 -4.68054901E+00
 -4.71415339E+00 -1.11176936E-04
Number of symbols in /Mol/                 I                0
Force Field                                I                0
Atom Types                                 C   N=          24
                                                            
                                                            
                                                            
                                                            
                                                
Int Atom Types                             I   N=          24
           0           0           0           0           0           0
           0           0           0           0           0           0
           0           0           0           0           0           0
           0           0           0           0           0           0
MM charges                                 R   N=          24
  0.00000000E+00  0.00000000E+00  0.00000000E+00  0.00000000E+00  0.00000000E+00
  0.00000000E+00  0.00000000E+00  0.00000000E+00  0.00000000E+00  0.00000000E+00
  0.00000000E+00  0.00000000E+00  0.00000000E+00  0.00000000E+00  0.00000000E+00
  0.00000000E+00  0.00000000E+00  0.00000000E+00  0.00000000E+00  0.00000000E+00
  0.00000000E+00  0.00000000E+00  0.00000000E+00  0.00000000E+00
Integer atomic weights                     I   N=          24
          12          12          12          12          12          12
          12          12          12          12          12           1
          12          12          12           1           1           1
           1           1           1           1           1           1
Real atomic weights                        R   N=          24
  1.20000000E+01  1.20000000E+01  1.20000000E+01  1.20000000E+01  1.20000000E+01
  1.20000000E+01  1.20000000E+01  1.20000000E+01  1.20000000E+01  1.20000000E+01
  1.20000000E+01  1.00782504E+00  1.20000000E+01  1.20000000E+01  1.20000000E+01
  1.00782504E+00  1.00782504E+00  1.00782504E+00  1.00782504E+00  1.00782504E+00
  1.00782504E+00  1.00782504E+00  1.00782504E+00  1.00782504E+00
Atom fragment info                         I   N=          24
           0           0           0           0           0           0
           0           0           0           0           0           0
           0           0           0           0           0           0
           0           0           0           0           0           0
Atom residue num                           I   N=          24
           0           0           0           0           0           0
           0           0           0           0           0           0
           0           0           0           0           0           0
           0           0           0           0           0           0
Nuclear spins                              I   N=          24
           0           0           0           0           0           0
           0           0           0           0           0           1
           0           0           0           1           1           1
           1           1           1           1           1           1
Nuclear ZEff                               R   N=          24
 -3.60000000E+00 -3.60000000E+00 -3.60000000E+00 -3.60000000E+00 -3.60000000E+00
 -3.60000000E+00 -3.60000000E+00 -3.60000000E+00 -3.60000000E+00 -3.60000000E+00
 -3.60000000E+00 -1.00000000E+00 -3.60000000E+00 -3.60000000E+00 -3.60000000E+00
 -1.00000000E+00 -1.00000000E+00 -1.00000000E+00 -1.00000000E+00 -1.00000000E+00
 -1.00000000E+00 -1.00000000E+00 -1.00000000E+00 -1.00000000E+00
Nuclear ZNuc                               R   N=          24
  6.00000000E+00  6.00000000E+00  6.00000000E+00  6.00000000E+00  6.00000000E+00
  6.00000000E+00  6.00000000E+00  6.00000000E+00  6.00000000E+00  6.00000000E+00
  6.00000000E+00  1.00000000E+00  6.00000000E+00  6.00000000E+00  6.00000000E+00
  1.00000000E+00  1.00000000E+00  1.00000000E+00  1.00000000E+00  1.00000000E+00
  1.00000000E+00  1.00000000E+00  1.00000000E+00  1.00000000E+00
Nuclear QMom                               R   N=          24
  0.00000000E+00  0.00000000E+00  0.00000000E+00  0.00000000E+00  0.00000000E+00
  0.00000000E+00  0.00000000E+00  0.00000000E+00  0.00000000E+00  0.00000000E+00
  0.00000000E+00  0.00000000E+00  0.00000000E+00  0.00000000E+00  0.00000000E+00
  0.00000000E+00  0.00000000E+00  0.00000000E+00  0.00000000E+00  0.00000000E+00
  0.00000000E+00  0.00000000E+00  0.00000000E+00  0.00000000E+00
Nuclear GFac                               R   N=          24
  0.00000000E+00  0.00000000E+00  0.00000000E+00  0.00000000E+00  0.00000000E+00
  0.00000000E+00  0.00000000E+00  0.00000000E+00  0.00000000E+00  0.00000000E+00
  0.00000000E+00  2.79284600E+00  0.00000000E+00  0.00000000E+00  0.00000000E+00
  2.79284600E+00  2.79284600E+00  2.79284600E+00  2.79284600E+00  2.79284600E+00
  2.79284600E+00  2.79284600E+00  2.79284600E+00  2.79284600E+00
MicOpt                                     I   N=          24
          -1          -1          -1          -1          -1          -1
          -1          -1          -1          -1          -1          -1
          -1          -1          -1          -1          -1          -1
          -1          -1          -1          -1          -1          -1
Number of residues                         I                0
Number of secondary structures             I                0
Redundant internal dimensions              I   N=           4
         132          26          42          64
Redundant internal coordinate indices      I   N=         528
           1           2           0           0           1           6
           0           0           1          17           0           0
           2           3           0           0           2          18
           0           0           3           4           0           0
           3           7           0           0           4           5
           0           0           4           8           0           0
           5           6           0           0           5          19
           0           0           6          20           0           0
           7          10           0           0           7          16
           0           0           8           9           0           0
           8          21           0           0           9          10
           0           0           9          15           0           0
          10          11           0           0          11          12
           0           0          11          13           0           0
          13          14           0           0          13          22
           0           0          14          15           0           0
          14          23           0           0          15          24
           0           0           2           1           6           0
           2           1          17           0           6           1
          17           0           1           2           3           0
           1           2          18           0           3           2
          18           0           2           3           4           0
           2           3           7           0           4           3
           7           0           3           4           5           0
           3           4           8           0           5           4
           8           0           4           5           6           0
           4           5          19           0           6           5
          19           0           1           6           5           0
           1           6          20           0           5           6
          20           0           3           7          10           0
           3           7          16           0          10           7
          16           0           4           8           9           0
           4           8          21           0           9           8
          21           0           8           9          10           0
           8           9          15           0          10           9
          15           0           7          10           9           0
           7          10          11           0           9          10
          11           0          10          11          12           0
          10          11          13           0          12          11
          13           0          11          13          14           0
          11          13          22           0          14          13
          22           0          13          14          15           0
          13          14          23           0          15          14
          23           0           9          15          14           0
           9          15          24           0          14          15
          24           0           6           1           2           3
           6           1           2          18          17           1
           2           3          17           1           2          18
           2           1           6           5           2           1
           6          20          17           1           6           5
          17           1           6          20           1           2
           3           4           1           2           3           7
          18           2           3           4          18           2
           3           7           2           3           4           5
           2           3           4           8           7           3
           4           5           7           3           4           8
           2           3           7          10           2           3
           7          16           4           3           7          10
           4           3           7          16           3           4
           5           6           3           4           5          19
           8           4           5           6           8           4
           5          19           3           4           8           9
           3           4           8          21           5           4
           8           9           5           4           8          21
           4           5           6           1           4           5
           6          20          19           5           6           1
          19           5           6          20           3           7
          10           9           3           7          10          11
          16           7          10           9          16           7
          10          11           4           8           9          10
           4           8           9          15          21           8
           9          10          21           8           9          15
           8           9          10           7           8           9
          10          11          15           9          10           7
          15           9          10          11           8           9
          15          14           8           9          15          24
          10           9          15          14          10           9
          15          24           7          10          11          12
           7          10          11          13           9          10
          11          12           9          10          11          13
          10          11          13          14          10          11
          13          22          12          11          13          14
          12          11          13          22          11          13
          14          15          11          13          14          23
          22          13          14          15          22          13
          14          23          13          14          15           9
          13          14          15          24          23          14
          15           9          23          14          15          24
Redundant internal coordinates             R   N=         132
  2.58870840E+00  2.69530401E+00  2.05347615E+00  2.70232199E+00  2.05518224E+00
  2.73110394E+00  2.64657384E+00  2.70232706E+00  2.64657255E+00  2.58870562E+00
  2.05518100E+00  2.05347890E+00  2.64657229E+00  2.05673283E+00  2.64657116E+00
  2.05672406E+00  2.73110747E+00  2.70232651E+00  2.70231722E+00  2.05518517E+00
  2.58871132E+00  2.69530812E+00  2.05347368E+00  2.58870351E+00  2.05347881E+00
  2.05518140E+00  2.10198338E+00  2.09716525E+00  2.08403668E+00  2.11130937E+00
  2.10437097E+00  2.06750497E+00  2.06989211E+00  2.13484445E+00  2.07844873E+00
  2.06989800E+00  2.07845750E+00  2.13482981E+00  2.11130678E+00  2.06750817E+00
  2.10437036E+00  2.10198098E+00  2.08403807E+00  2.09716626E+00  2.12628557E+00
  2.07844516E+00  2.07845455E+00  2.12627348E+00  2.07845523E+00  2.07845660E+00
  2.07846080E+00  2.13482772E+00  2.06989679E+00  2.07844453E+00  2.13484934E+00
  2.06989144E+00  2.06750823E+00  2.11131307E+00  2.10436401E+00  2.10197916E+00
  2.09716879E+00  2.08403736E+00  2.10198162E+00  2.08403800E+00  2.09716568E+00
  2.11130853E+00  2.06750607E+00  2.10437070E+00  5.82682924E-05 -3.14149955E+00
 -3.14153182E+00  9.56712562E-05  1.43280070E-05 -3.14151197E+00 -3.14158088E+00
  7.81366184E-05 -3.40596445E-05  3.14137427E+00  3.14152448E+00 -2.52493238E-04
 -5.90546047E-05  3.14152999E+00 -3.14147346E+00  1.15585691E-04 -3.14153993E+00
  3.10509520E-04 -1.32469222E-04 -3.14146733E+00  1.31875813E-04 -3.14153218E+00
 -3.14145705E+00  6.41984101E-05 -9.09683135E-05  3.14145300E+00  3.14149794E+00
 -1.43395964E-04 -1.10709153E-04  3.14141509E+00  3.14155486E+00 -1.04655208E-04
  1.18968252E-04  3.14158189E+00  3.14145383E+00 -2.68556961E-04  7.74676489E-05
 -3.14151373E+00 -3.14146650E+00  1.27606360E-04 -8.85274563E-05 -3.14155631E+00
  3.14150272E+00  3.49397851E-05  3.14144628E+00 -3.55361079E-05 -1.44926148E-04
  3.14155857E+00  1.51329011E-04 -3.14138224E+00 -3.14157045E+00  8.12835561E-05
 -9.12167727E-05  3.14152447E+00  3.14156176E+00 -7.85590857E-06 -1.97978568E-05
  3.14144665E+00  3.14154999E+00 -1.68864008E-04  1.39139968E-04 -3.14156669E+00
 -3.14132636E+00  1.53116077E-04
ZRed-IntVec                                I   N=         132
           0           0           0           0           0           0
           0           0           0           0           0           0
           0           0           0           0           0           0
           0           0           0           0           0           0
           0           0           0           0           0           0
           0           0           0           0           0           0
           0           0           0           0           0           0
           0           0           0           0           0           0
           0           0           0           0           0           0
           0           0           0           0           0           0
           0           0           0           0           0           0
           0           0           0           0           0           0
           0           0           0           0           0           0
           0           0           0           0           0           0
           0           0           0           0           0           0
           0           0           0           0           0           0
           0           0           0           0           0           0
           0           0           0           0           0           0
           0           0           0           0           0           0
           0           0           0           0           0           0
           0           0           0           0           0           0
           0           0           0           0           0           0
ZRed-FPVec                                 R   N=         132
  0.00000000E+00  0.00000000E+00  0.00000000E+00  0.00000000E+00  0.00000000E+00
  0.00000000E+00  0.00000000E+00  0.00000000E+00  0.00000000E+00  0.00000000E+00
  0.00000000E+00  0.00000000E+00  0.00000000E+00  0.00000000E+00  0.00000000E+00
  0.00000000E+00  0.00000000E+00  0.00000000E+00  0.00000000E+00  0.00000000E+00
  0.00000000E+00  0.00000000E+00  0.00000000E+00  0.00000000E+00  0.00000000E+00
  0.00000000E+00  0.00000000E+00  0.00000000E+00  0.00000000E+00  0.00000000E+00
  0.00000000E+00  0.00000000E+00  0.00000000E+00  0.00000000E+00  0.00000000E+00
  0.00000000E+00  0.00000000E+00  0.00000000E+00  0.00000000E+00  0.00000000E+00
  0.00000000E+00  0.00000000E+00  0.00000000E+00  0.00000000E+00  0.00000000E+00
  0.00000000E+00  0.00000000E+00  0.00000000E+00  0.00000000E+00  0.00000000E+00
  0.00000000E+00  0.00000000E+00  0.00000000E+00  0.00000000E+00  0.00000000E+00
  0.00000000E+00  0.00000000E+00  0.00000000E+00  0.00000000E+00  0.00000000E+00
  0.00000000E+00  0.00000000E+00  0.00000000E+00  0.00000000E+00  0.00000000E+00
  0.00000000E+00  0.00000000E+00  0.00000000E+00  0.00000000E+00  0.00000000E+00
  0.00000000E+00  0.00000000E+00  0.00000000E+00  0.00000000E+00  0.00000000E+00
  0.00000000E+00  0.00000000E+00  0.00000000E+00  0.00000000E+00  0.00000000E+00
  0.00000000E+00  0.00000000E+00  0.00000000E+00  0.00000000E+00  0.00000000E+00
  0.00000000E+00  0.00000000E+00  0.00000000E+00  0.00000000E+00  0.00000000E+00
  0.00000000E+00  0.00000000E+00  0.00000000E+00  0.00000000E+00  0.00000000E+00
  0.00000000E+00  0.00000000E+00  0.00000000E+00  0.00000000E+00  0.00000000E+00
  0.00000000E+00  0.00000000E+00  0.00000000E+00  0.00000000E+00  0.00000000E+00
  0.00000000E+00  0.00000000E+00  0.00000000E+00  0.00000000E+00  0.00000000E+00
  0.00000000E+00  0.00000000E+00  0.00000000E+00  0.00000000E+00  0.00000000E+00
  0.00000000E+00  0.00000000E+00  0.00000000E+00  0.00000000E+00  0.00000000E+00
  0.00000000E+00  0.00000000E+00  0.00000000E+00  0.00000000E+00  0.00000000E+00
  0.00000000E+00  0.00000000E+00  0.00000000E+00  0.00000000E+00  0.00000000E+00
  0.00000000E+00  0.00000000E+00
ZRed-Constraint1                           R   N=         132
  2.58870840E+00  2.69530401E+00  2.05347615E+00  2.70232199E+00  2.05518224E+00
  2.73110394E+00  2.64657384E+00  2.70232706E+00  2.64657255E+00  2.58870562E+00
  2.05518100E+00  2.05347890E+00  2.64657229E+00  2.05673283E+00  2.64657116E+00
  2.05672406E+00  2.73110747E+00  2.70232651E+00  2.70231722E+00  2.05518517E+00
  2.58871132E+00  2.69530812E+00  2.05347368E+00  2.58870351E+00  2.05347881E+00
  2.05518140E+00  2.10198338E+00  2.09716525E+00  2.08403668E+00  2.11130937E+00
  2.10437097E+00  2.06750497E+00  2.06989211E+00  2.13484445E+00  2.07844873E+00
  2.06989800E+00  2.07845750E+00  2.13482981E+00  2.11130678E+00  2.06750817E+00
  2.10437036E+00  2.10198098E+00  2.08403807E+00  2.09716626E+00  2.12628557E+00
  2.07844516E+00  2.07845455E+00  2.12627348E+00  2.07845523E+00  2.07845660E+00
  2.07846080E+00  2.13482772E+00  2.06989679E+00  2.07844453E+00  2.13484934E+00
  2.06989144E+00  2.06750823E+00  2.11131307E+00  2.10436401E+00  2.10197916E+00
  2.09716879E+00  2.08403736E+00  2.10198162E+00  2.08403800E+00  2.09716568E+00
  2.11130853E+00  2.06750607E+00  2.10437070E+00  5.82682905E-05 -3.14149955E+00
 -3.14153182E+00  9.56712585E-05  1.43280225E-05 -3.14151197E+00 -3.14158088E+00
  7.81366170E-05 -3.40596445E-05  3.14137427E+00  3.14152448E+00 -2.52493238E-04
 -5.90546066E-05  3.14152999E+00 -3.14147346E+00  1.15585693E-04 -3.14153993E+00
  3.10509520E-04 -1.32469220E-04 -3.14146733E+00  1.31875812E-04 -3.14153218E+00
 -3.14145705E+00  6.41984101E-05 -9.09683159E-05  3.14145300E+00  3.14149794E+00
 -1.43395964E-04 -1.10709153E-04  3.14141509E+00  3.14155486E+00 -1.04655208E-04
  1.18968252E-04  3.14158189E+00  3.14145383E+00 -2.68556961E-04  7.74676474E-05
 -3.14151373E+00 -3.14146650E+00  1.27606359E-04 -8.85274551E-05 -3.14155631E+00
  3.14150272E+00  3.49397851E-05  3.14144628E+00 -3.55361048E-05 -1.44926148E-04
  3.14155857E+00  1.51329011E-04 -3.14138224E+00 -3.14157045E+00  8.12835575E-05
 -9.12167752E-05  3.14152447E+00  3.14156176E+00 -7.85590857E-06 -1.97978512E-05
  3.14144665E+00  3.14154999E+00 -1.68864010E-04  1.39139968E-04 -3.14156669E+00
 -3.14132636E+00  1.53116077E-04
ZRed-Constraint2                           R   N=         132
  2.57876374E+00  2.69403516E+00  2.07869039E+00  2.70927469E+00  2.07964407E+00
  2.70003245E+00  2.64686840E+00  2.70767776E+00  2.64401124E+00  2.57893886E+00
  2.07964407E+00  2.07869040E+00  2.64922679E+00  2.08050358E+00  2.64401124E+00
  2.08050359E+00  2.70003245E+00  2.70767776E+00  2.71337512E+00  2.07964407E+00
  2.57876374E+00  2.69403517E+00  2.07869039E+00  2.57876374E+00  2.07869039E+00
  2.07964407E+00  2.10224268E+00  2.11114049E+00  2.06980010E+00  2.10724327E+00
  2.11470935E+00  2.06055301E+00  2.07221500E+00  2.12057906E+00  2.08404808E+00
  2.07321323E+00  2.08555010E+00  2.12409849E+00  2.10772013E+00  2.06069709E+00
  2.11476653E+00  2.10212737E+00  2.06980011E+00  2.11113280E+00  2.10543863E+00
  2.08520518E+00  2.08360910E+00  2.11143840E+00  2.08587344E+00  2.08587344E+00
  2.08555010E+00  2.12409849E+00  2.07321323E+00  2.08354657E+00  2.11899347E+00
  2.07063542E+00  2.05938898E+00  2.10449840E+00  2.11470935E+00  2.10224268E+00
  2.11114050E+00  2.06980010E+00  2.10224268E+00  2.06980010E+00  2.11114050E+00
  2.10771988E+00  2.06069709E+00  2.11470935E+00  4.24486729E-02 -3.13952847E+00
 -3.10133886E+00 -1.30697471E-04 -1.89738566E-02  3.13944910E+00  3.12476236E+00
  0.00000000E+00 -6.06879085E-02 -3.08073616E+00  3.12006409E+00  1.00015834E-01
  5.49116942E-02 -3.11354244E+00  3.07755549E+00 -9.08986449E-02 -3.10808942E+00
 -1.10594633E-01  1.55853766E-01 -3.12983675E+00 -3.30299683E-02  3.10668606E+00
  3.13604377E+00 -7.42550828E-03  2.82611262E-02 -3.11355571E+00 -3.14100232E+00
  3.66151362E-04  1.42972467E-02  3.13865675E+00 -3.12536018E+00 -1.00068231E-03
 -1.55809383E-01  3.13942873E+00  3.12975055E+00  1.41803360E-01 -2.82611262E-02
  3.14100232E+00  3.11355571E+00 -3.66151362E-04  9.08082143E-02  3.08302316E+00
 -3.07764592E+00 -8.54309723E-02  3.13747961E+00  7.42550828E-03  2.33680404E-02
 -3.10668606E+00 -1.30153839E-01  3.11304836E+00 -3.11920572E+00  1.23996478E-01
 -9.77085010E-02  3.04607902E+00 -3.13443762E+00  9.34990245E-03  3.27630324E-02
 -3.10668607E+00 -3.11097318E+00  3.27630317E-02  4.74342439E-03  3.13443762E+00
 -3.13904410E+00 -9.34990363E-03
SymInf integers                            I   N=          26
           1           1           1           1           1           0
           0           0           0           0           0           0
           0           0           0           0           0           0
           0           0           0           0           0           0
           0           0
RotTr to input orientation                 R   N=          12
 -1.00000000E+00 -3.94797699E-06 -2.82005022E-05  4.02008153E-06 -9.99996730E-01
 -2.55731107E-03 -2.81903137E-05 -2.55731118E-03  9.99996730E-01 -1.18172820E-05
  6.76121044E-05 -3.92800703E-03
Number of contracted shells                I               76
Number of primitive shells                 I              194
Pure/Cartesian d shells                    I                1
Pure/Cartesian f shells                    I                0
Highest angular momentum                   I                2
Largest degree of contraction              I                6
Shell types                                I   N=          76
           0          -1          -1           2           0          -1
          -1           2           0          -1          -1           2
           0          -1          -1           2           0          -1
          -1           2           0          -1          -1           2
           0          -1          -1           2           0          -1
          -1           2           0          -1          -1           2
           0          -1          -1           2           0          -1
          -1           2           0           0           0          -1
          -1           2           0          -1          -1           2
           0          -1          -1           2           0           0
           0           0           0           0           0           0
           0           0           0           0           0           0
           0           0           0           0
Number of primitives per shell             I   N=          76
           6           3           1           1           6           3
           1           1           6           3           1           1
           6           3           1           1           6           3
           1           1           6           3           1           1
           6           3           1           1           6           3
           1           1           6           3           1           1
           6           3           1           1           6           3
           1           1           3           1           6           3
           1           1           6           3           1           1
           6           3           1           1           3           1
           3           1           3           1           3           1
           3           1           3           1           3           1
           3           1           3           1
Shell to atom map                          I   N=          76
           1           1           1           1           2           2
           2           2           3           3           3           3
           4           4           4           4           5           5
           5           5           6           6           6           6
           7           7           7           7           8           8
           8           8           9           9           9           9
          10          10          10          10          11          11
          11          11          12          12          13          13
          13          13          14          14          14          14
          15          15          15          15          16          16
          17          17          18          18          19          19
          20          20          21          21          22          22
          23          23          24          24
Primitive exponents                        R   N=         194
  3.04752488E+03  4.57369518E+02  1.03948685E+02  2.92101553E+01  9.28666296E+00
  3.16392696E+00  7.86827235E+00  1.88128854E+00  5.44249258E-01  1.68714478E-01
  8.00000000E-01  3.04752488E+03  4.57369518E+02  1.03948685E+02  2.92101553E+01