xxx                                                                     
Freq      RB3LYP TD-FC                                                6-31G(d)            
Number of atoms                            I               24
Info1-9                                    I   N=           9
          34          33        1002           0           0         100
           6         218        -501
Full Title                                 C   N=           1
xxx         
Route                                      C   N=           3
# B3LYP/6-31G* TD(root=1) opt freq  
Charge                                     I                0
Multiplicity                               I                1
Number of electrons                        I               94
Number of alpha electrons                  I               47
Number of beta electrons                   I               47
Number of basis functions                  I              230
Number of independent functions            I              230
Number of point charges in /Mol/           I                0
Number of translation vectors              I                0
Atomic numbers                             I   N=          24
           6           6           6           6           6           6
           6           6           6           6           6           1
           6           6           6           1           1           1
           1           1           1           1           1           1
Nuclear charges                            R   N=          24
  6.00000000E+00  6.00000000E+00  6.00000000E+00  6.00000000E+00  6.00000000E+00
  6.00000000E+00  6.00000000E+00  6.00000000E+00  6.00000000E+00  6.00000000E+00
  6.00000000E+00  1.00000000E+00  6.00000000E+00  6.00000000E+00  6.00000000E+00
  1.00000000E+00  1.00000000E+00  1.00000000E+00  1.00000000E+00  1.00000000E+00
  1.00000000E+00  1.00000000E+00  1.00000000E+00  1.00000000E+00
Current cartesian coordinates              R   N=          72
  6.99562870E+00  1.31366405E+00 -3.00215946E-04  4.68580147E+00  2.64476093E+00
 -6.39661450E-06  2.35113314E+00  1.36434177E+00 -2.69907820E-06  2.35113910E+00
 -1.36433518E+00  3.52671302E-04  4.68579763E+00 -2.64476322E+00  2.87215160E-06
  6.99562623E+00 -1.31367106E+00 -3.73515623E-04  8.27203457E-07  2.64024506E+00
  4.89662007E-04 -2.38685404E-06 -2.64025222E+00  4.21683268E-04 -2.35113096E+00
 -1.36433053E+00  3.00620415E-04 -2.35113096E+00  1.36436054E+00 -1.92658171E-05
 -4.68580133E+00  2.64476164E+00  3.50178388E-05 -4.69198274E+00  4.69929763E+00
  3.49725772E-04 -6.99563898E+00  1.31365736E+00 -2.39082024E-04 -6.99562904E+00
 -1.31367604E+00 -3.97812957E-04 -4.68579222E+00 -2.64475880E+00 -6.37605613E-05
  2.40699671E-05  4.69720622E+00 -9.68211014E-05  8.76539871E+00  2.35315127E+00
 -5.17976797E-04  4.69195282E+00  4.69929543E+00  2.94827620E-04  4.69193381E+00
 -4.69929803E+00 -6.25847140E-05  8.76539881E+00 -2.35315463E+00 -6.28117774E-04
 -7.20651790E-06 -4.69720316E+00  7.88031784E-04 -8.76540397E+00  2.35314951E+00
 -4.26877291E-04 -8.76539423E+00 -2.35317568E+00 -6.15484435E-04 -4.69192749E+00
 -4.69929437E+00 -2.83393227E-04
Number of symbols in /Mol/                 I                0
Force Field                                I                0
Atom Types                                 C   N=          24
                                                            
                                                            
                                                            
                                                            
                                                
Int Atom Types                             I   N=          24
           0           0           0           0           0           0
           0           0           0           0           0           0
           0           0           0           0           0           0
           0           0           0           0           0           0
MM charges                                 R   N=          24
  0.00000000E+00  0.00000000E+00  0.00000000E+00  0.00000000E+00  0.00000000E+00
  0.00000000E+00  0.00000000E+00  0.00000000E+00  0.00000000E+00  0.00000000E+00
  0.00000000E+00  0.00000000E+00  0.00000000E+00  0.00000000E+00  0.00000000E+00
  0.00000000E+00  0.00000000E+00  0.00000000E+00  0.00000000E+00  0.00000000E+00
  0.00000000E+00  0.00000000E+00  0.00000000E+00  0.00000000E+00
Integer atomic weights                     I   N=          24
          12          12          12          12          12          12
          12          12          12          12          12           1
          12          12          12           1           1           1
           1           1           1           1           1           1
Real atomic weights                        R   N=          24
  1.20000000E+01  1.20000000E+01  1.20000000E+01  1.20000000E+01  1.20000000E+01
  1.20000000E+01  1.20000000E+01  1.20000000E+01  1.20000000E+01  1.20000000E+01
  1.20000000E+01  1.00782504E+00  1.20000000E+01  1.20000000E+01  1.20000000E+01
  1.00782504E+00  1.00782504E+00  1.00782504E+00  1.00782504E+00  1.00782504E+00
  1.00782504E+00  1.00782504E+00  1.00782504E+00  1.00782504E+00
Atom fragment info                         I   N=          24
           0           0           0           0           0           0
           0           0           0           0           0           0
           0           0           0           0           0           0
           0           0           0           0           0           0
Atom residue num                           I   N=          24
           0           0           0           0           0           0
           0           0           0           0           0           0
           0           0           0           0           0           0
           0           0           0           0           0           0
Nuclear spins                              I   N=          24
           0           0           0           0           0           0
           0           0           0           0           0           1
           0           0           0           1           1           1
           1           1           1           1           1           1
Nuclear ZEff                               R   N=          24
 -3.60000000E+00 -3.60000000E+00 -3.60000000E+00 -3.60000000E+00 -3.60000000E+00
 -3.60000000E+00 -3.60000000E+00 -3.60000000E+00 -3.60000000E+00 -3.60000000E+00
 -3.60000000E+00 -1.00000000E+00 -3.60000000E+00 -3.60000000E+00 -3.60000000E+00
 -1.00000000E+00 -1.00000000E+00 -1.00000000E+00 -1.00000000E+00 -1.00000000E+00
 -1.00000000E+00 -1.00000000E+00 -1.00000000E+00 -1.00000000E+00
Nuclear ZNuc                               R   N=          24
  6.00000000E+00  6.00000000E+00  6.00000000E+00  6.00000000E+00  6.00000000E+00
  6.00000000E+00  6.00000000E+00  6.00000000E+00  6.00000000E+00  6.00000000E+00
  6.00000000E+00  1.00000000E+00  6.00000000E+00  6.00000000E+00  6.00000000E+00
  1.00000000E+00  1.00000000E+00  1.00000000E+00  1.00000000E+00  1.00000000E+00
  1.00000000E+00  1.00000000E+00  1.00000000E+00  1.00000000E+00
Nuclear QMom                               R   N=          24
  0.00000000E+00  0.00000000E+00  0.00000000E+00  0.00000000E+00  0.00000000E+00
  0.00000000E+00  0.00000000E+00  0.00000000E+00  0.00000000E+00  0.00000000E+00
  0.00000000E+00  0.00000000E+00  0.00000000E+00  0.00000000E+00  0.00000000E+00
  0.00000000E+00  0.00000000E+00  0.00000000E+00  0.00000000E+00  0.00000000E+00
  0.00000000E+00  0.00000000E+00  0.00000000E+00  0.00000000E+00
Nuclear GFac                               R   N=          24
  0.00000000E+00  0.00000000E+00  0.00000000E+00  0.00000000E+00  0.00000000E+00
  0.00000000E+00  0.00000000E+00  0.00000000E+00  0.00000000E+00  0.00000000E+00
  0.00000000E+00  2.79284600E+00  0.00000000E+00  0.00000000E+00  0.00000000E+00
  2.79284600E+00  2.79284600E+00  2.79284600E+00  2.79284600E+00  2.79284600E+00
  2.79284600E+00  2.79284600E+00  2.79284600E+00  2.79284600E+00
MicOpt                                     I   N=          24
          -1          -1          -1          -1          -1          -1
          -1          -1          -1          -1          -1          -1
          -1          -1          -1          -1          -1          -1
          -1          -1          -1          -1          -1          -1
Number of residues                         I                0
Number of secondary structures             I                0
Redundant internal dimensions              I   N=           4
         132          26          42          64
Redundant internal coordinate indices      I   N=         528
           1           2           0           0           1           6
           0           0           1          17           0           0
           2           3           0           0           2          18
           0           0           3           4           0           0
           3           7           0           0           4           5
           0           0           4           8           0           0
           5           6           0           0           5          19
           0           0           6          20           0           0
           7          10           0           0           7          16
           0           0           8           9           0           0
           8          21           0           0           9          10
           0           0           9          15           0           0
          10          11           0           0          11          12
           0           0          11          13           0           0
          13          14           0           0          13          22
           0           0          14          15           0           0
          14          23           0           0          15          24
           0           0           2           1           6           0
           2           1          17           0           6           1
          17           0           1           2           3           0
           1           2          18           0           3           2
          18           0           2           3           4           0
           2           3           7           0           4           3
           7           0           3           4           5           0
           3           4           8           0           5           4
           8           0           4           5           6           0
           4           5          19           0           6           5
          19           0           1           6           5           0
           1           6          20           0           5           6
          20           0           3           7          10           0
           3           7          16           0          10           7
          16           0           4           8           9           0
           4           8          21           0           9           8
          21           0           8           9          10           0
           8           9          15           0          10           9
          15           0           7          10           9           0
           7          10          11           0           9          10
          11           0          10          11          12           0
          10          11          13           0          12          11
          13           0          11          13          14           0
          11          13          22           0          14          13
          22           0          13          14          15           0
          13          14          23           0          15          14
          23           0           9          15          14           0
           9          15          24           0          14          15
          24           0           6           1           2           3
           6           1           2          18          17           1
           2           3          17           1           2          18
           2           1           6           5           2           1
           6          20          17           1           6           5
          17           1           6          20           1           2
           3           4           1           2           3           7
          18           2           3           4          18           2
           3           7           2           3           4           5
           2           3           4           8           7           3
           4           5           7           3           4           8
           2           3           7          10           2           3
           7          16           4           3           7          10
           4           3           7          16           3           4
           5           6           3           4           5          19
           8           4           5           6           8           4
           5          19           3           4           8           9
           3           4           8          21           5           4
           8           9           5           4           8          21
           4           5           6           1           4           5
           6          20          19           5           6           1
          19           5           6          20           3           7
          10           9           3           7          10          11
          16           7          10           9          16           7
          10          11           4           8           9          10
           4           8           9          15          21           8
           9          10          21           8           9          15
           8           9          10           7           8           9
          10          11          15           9          10           7
          15           9          10          11           8           9
          15          14           8           9          15          24
          10           9          15          14          10           9
          15          24           7          10          11          12
           7          10          11          13           9          10
          11          12           9          10          11          13
          10          11          13          14          10          11
          13          22          12          11          13          14
          12          11          13          22          11          13
          14          15          11          13          14          23
          22          13          14          15          22          13
          14          23          13          14          15           9
          13          14          15          24          23          14
          15           9          23          14          15          24
Redundant internal coordinates             R   N=         132
  2.66591839E+00  2.62733511E+00  2.05246672E+00  2.66273344E+00  2.05454373E+00
  2.72867697E+00  2.67502385E+00  2.66272916E+00  2.67503843E+00  2.66591722E+00
  2.05454396E+00  2.05246708E+00  2.67501444E+00  2.05696124E+00  2.67502929E+00
  2.05695097E+00  2.72869109E+00  2.66273166E+00  2.66272656E+00  2.05454530E+00
  2.66593110E+00  2.62733340E+00  2.05246489E+00  2.66591965E+00  2.05246885E+00
  2.05454474E+00  2.09358772E+00  2.08772884E+00  2.10186874E+00  2.11715768E+00
  2.09059464E+00  2.07543299E+00  2.07243678E+00  2.14274714E+00  2.06800133E+00
  2.07244582E+00  2.06799989E+00  2.14273957E+00  2.11715478E+00  2.07543030E+00
  2.09060022E+00  2.09358780E+00  2.10186470E+00  2.08773281E+00  2.14719294E+00
  2.06798780E+00  2.06800432E+00  2.14717733E+00  2.06800441E+00  2.06800356E+00
  2.06800590E+00  2.14273617E+00  2.07244321E+00  2.06799308E+00  2.14275952E+00
  2.07243264E+00  2.07544131E+00  2.11716353E+00  2.09058047E+00  2.09358534E+00
  2.08772508E+00  2.10187489E+00  2.09358605E+00  2.10187044E+00  2.08772882E+00
  2.11715980E+00  2.07542945E+00  2.09059606E+00 -9.67096807E-05  3.14145549E+00
  3.14146787E+00 -1.65238815E-04 -6.79014523E-05  3.14157631E+00  3.14155306E+00
  1.19564711E-05  2.75921464E-04  3.14150280E+00 -3.14127662E+00 -4.97443793E-05
 -2.91097963E-04  3.14156414E+00 -3.14153382E+00  3.21413968E-04  3.14136293E+00
  5.41110364E-04 -5.94619682E-04 -3.14141644E+00  1.35230798E-04 -3.14140823E+00
  3.14145342E+00 -9.00455410E-05 -6.34300199E-05 -3.14153819E+00 -3.14138228E+00
  3.28264445E-04  4.56652497E-05  3.14158719E+00  3.14158871E+00 -5.50810917E-05
  5.79820776E-04 -3.14139618E+00  3.14140163E+00 -5.74365747E-04  4.86338998E-05
  3.14139885E+00  3.14152340E+00 -3.11691803E-04 -2.92206032E-04 -3.14151724E+00
  3.14153294E+00  3.07912555E-04 -3.14149495E+00 -1.22734742E-05 -1.45317906E-04
  3.14133736E+00  7.56592046E-05 -3.14148600E+00  3.14128404E+00 -2.77615613E-04
  7.59051037E-05 -3.14145947E+00 -3.14148549E+00  1.64445892E-04  9.55870768E-05
 -3.14158900E+00 -3.14155482E+00 -5.40904927E-05 -5.79768833E-05 -3.14153971E+00
 -3.14155945E+00  1.44122675E-04
ZRed-IntVec                                I   N=         132
           0           0           0           0           0           0
           0           0           0           0           0           0
           0           0           0           0           0           0
           0           0           0           0           0           0
           0           0           0           0           0           0
           0           0           0           0           0           0
           0           0           0           0           0           0
           0           0           0           0           0           0
           0           0           0           0           0           0
           0           0           0           0           0           0
           0           0           0           0           0           0
           0           0           0           0           0           0
           0           0           0           0           0           0
           0           0           0           0           0           0
           0           0           0           0           0           0
           0           0           0           0           0           0
           0           0           0           0           0           0
           0           0           0           0           0           0
           0           0           0           0           0           0
           0           0           0           0           0           0
           0           0           0           0           0           0
           0           0           0           0           0           0
ZRed-FPVec                                 R   N=         132
  0.00000000E+00  0.00000000E+00  0.00000000E+00  0.00000000E+00  0.00000000E+00
  0.00000000E+00  0.00000000E+00  0.00000000E+00  0.00000000E+00  0.00000000E+00
  0.00000000E+00  0.00000000E+00  0.00000000E+00  0.00000000E+00  0.00000000E+00
  0.00000000E+00  0.00000000E+00  0.00000000E+00  0.00000000E+00  0.00000000E+00
  0.00000000E+00  0.00000000E+00  0.00000000E+00  0.00000000E+00  0.00000000E+00
  0.00000000E+00  0.00000000E+00  0.00000000E+00  0.00000000E+00  0.00000000E+00
  0.00000000E+00  0.00000000E+00  0.00000000E+00  0.00000000E+00  0.00000000E+00
  0.00000000E+00  0.00000000E+00  0.00000000E+00  0.00000000E+00  0.00000000E+00
  0.00000000E+00  0.00000000E+00  0.00000000E+00  0.00000000E+00  0.00000000E+00
  0.00000000E+00  0.00000000E+00  0.00000000E+00  0.00000000E+00  0.00000000E+00
  0.00000000E+00  0.00000000E+00  0.00000000E+00  0.00000000E+00  0.00000000E+00
  0.00000000E+00  0.00000000E+00  0.00000000E+00  0.00000000E+00  0.00000000E+00
  0.00000000E+00  0.00000000E+00  0.00000000E+00  0.00000000E+00  0.00000000E+00
  0.00000000E+00  0.00000000E+00  0.00000000E+00  0.00000000E+00  0.00000000E+00
  0.00000000E+00  0.00000000E+00  0.00000000E+00  0.00000000E+00  0.00000000E+00
  0.00000000E+00  0.00000000E+00  0.00000000E+00  0.00000000E+00  0.00000000E+00
  0.00000000E+00  0.00000000E+00  0.00000000E+00  0.00000000E+00  0.00000000E+00
  0.00000000E+00  0.00000000E+00  0.00000000E+00  0.00000000E+00  0.00000000E+00
  0.00000000E+00  0.00000000E+00  0.00000000E+00  0.00000000E+00  0.00000000E+00
  0.00000000E+00  0.00000000E+00  0.00000000E+00  0.00000000E+00  0.00000000E+00
  0.00000000E+00  0.00000000E+00  0.00000000E+00  0.00000000E+00  0.00000000E+00
  0.00000000E+00  0.00000000E+00  0.00000000E+00  0.00000000E+00  0.00000000E+00
  0.00000000E+00  0.00000000E+00  0.00000000E+00  0.00000000E+00  0.00000000E+00
  0.00000000E+00  0.00000000E+00  0.00000000E+00  0.00000000E+00  0.00000000E+00
  0.00000000E+00  0.00000000E+00  0.00000000E+00  0.00000000E+00  0.00000000E+00
  0.00000000E+00  0.00000000E+00  0.00000000E+00  0.00000000E+00  0.00000000E+00
  0.00000000E+00  0.00000000E+00
ZRed-Constraint1                           R   N=         132
  2.66591839E+00  2.62733511E+00  2.05246672E+00  2.66273344E+00  2.05454373E+00
  2.72867697E+00  2.67502385E+00  2.66272916E+00  2.67503843E+00  2.66591722E+00
  2.05454396E+00  2.05246708E+00  2.67501444E+00  2.05696124E+00  2.67502929E+00
  2.05695097E+00  2.72869109E+00  2.66273166E+00  2.66272656E+00  2.05454530E+00
  2.66593110E+00  2.62733340E+00  2.05246489E+00  2.66591965E+00  2.05246885E+00
  2.05454474E+00  2.09358772E+00  2.08772884E+00  2.10186874E+00  2.11715768E+00
  2.09059464E+00  2.07543299E+00  2.07243678E+00  2.14274714E+00  2.06800133E+00
  2.07244582E+00  2.06799989E+00  2.14273957E+00  2.11715478E+00  2.07543030E+00
  2.09060022E+00  2.09358780E+00  2.10186470E+00  2.08773281E+00  2.14719294E+00
  2.06798780E+00  2.06800432E+00  2.14717733E+00  2.06800441E+00  2.06800356E+00
  2.06800590E+00  2.14273617E+00  2.07244321E+00  2.06799308E+00  2.14275952E+00
  2.07243264E+00  2.07544131E+00  2.11716353E+00  2.09058047E+00  2.09358534E+00
  2.08772508E+00  2.10187489E+00  2.09358605E+00  2.10187044E+00  2.08772882E+00
  2.11715980E+00  2.07542945E+00  2.09059606E+00 -9.67096819E-05  3.14145549E+00
  3.14146787E+00 -1.65238815E-04 -6.79014523E-05  3.14157631E+00  3.14155306E+00
  1.19564711E-05  2.75921464E-04  3.14150280E+00 -3.14127662E+00 -4.97443793E-05
 -2.91097963E-04  3.14156414E+00 -3.14153382E+00  3.21413968E-04  3.14136293E+00
  5.41110364E-04 -5.94619682E-04 -3.14141644E+00  1.35230799E-04 -3.14140823E+00
  3.14145342E+00 -9.00455410E-05 -6.34300199E-05 -3.14153819E+00 -3.14138228E+00
  3.28264445E-04  4.56652473E-05  3.14158719E+00  3.14158871E+00 -5.50810877E-05
  5.79820776E-04 -3.14139618E+00  3.14140163E+00 -5.74365747E-04  4.86338998E-05
  3.14139885E+00  3.14152340E+00 -3.11691803E-04 -2.92206032E-04 -3.14151724E+00
  3.14153294E+00  3.07912555E-04 -3.14149495E+00 -1.22734832E-05 -1.45317905E-04
  3.14133736E+00  7.56592046E-05 -3.14148600E+00  3.14128404E+00 -2.77615613E-04
  7.59051037E-05 -3.14145947E+00 -3.14148549E+00  1.64445892E-04  9.55870768E-05
 -3.14158900E+00 -3.14155482E+00 -5.40904927E-05 -5.79768853E-05 -3.14153971E+00
 -3.14155945E+00  1.44122675E-04
ZRed-Constraint2                           R   N=         132
  2.57876374E+00  2.69403516E+00  2.07869039E+00  2.70927469E+00  2.07964407E+00
  2.70003245E+00  2.64686840E+00  2.70767776E+00  2.64401124E+00  2.57893886E+00
  2.07964407E+00  2.07869040E+00  2.64922679E+00  2.08050358E+00  2.64401124E+00
  2.08050359E+00  2.70003245E+00  2.70767776E+00  2.71337512E+00  2.07964407E+00
  2.57876374E+00  2.69403517E+00  2.07869039E+00  2.57876374E+00  2.07869039E+00
  2.07964407E+00  2.10224268E+00  2.11114049E+00  2.06980010E+00  2.10724327E+00
  2.11470935E+00  2.06055301E+00  2.07221500E+00  2.12057906E+00  2.08404808E+00
  2.07321323E+00  2.08555010E+00  2.12409849E+00  2.10772013E+00  2.06069709E+00
  2.11476653E+00  2.10212737E+00  2.06980011E+00  2.11113280E+00  2.10543863E+00
  2.08520518E+00  2.08360910E+00  2.11143840E+00  2.08587344E+00  2.08587344E+00
  2.08555010E+00  2.12409849E+00  2.07321323E+00  2.08354657E+00  2.11899347E+00
  2.07063542E+00  2.05938898E+00  2.10449840E+00  2.11470935E+00  2.10224268E+00
  2.11114050E+00  2.06980010E+00  2.10224268E+00  2.06980010E+00  2.11114050E+00
  2.10771988E+00  2.06069709E+00  2.11470935E+00  4.24486729E-02 -3.13952847E+00
 -3.10133886E+00 -1.30697471E-04 -1.89738566E-02  3.13944910E+00  3.12476236E+00
  0.00000000E+00 -6.06879085E-02 -3.08073616E+00  3.12006409E+00  1.00015834E-01
  5.49116942E-02 -3.11354244E+00  3.07755549E+00 -9.08986449E-02 -3.10808942E+00
 -1.10594633E-01  1.55853766E-01 -3.12983675E+00 -3.30299683E-02  3.10668606E+00
  3.13604377E+00 -7.42550828E-03  2.82611262E-02 -3.11355571E+00 -3.14100232E+00
  3.66151362E-04  1.42972467E-02  3.13865675E+00 -3.12536018E+00 -1.00068231E-03
 -1.55809383E-01  3.13942873E+00  3.12975055E+00  1.41803360E-01 -2.82611262E-02
  3.14100232E+00  3.11355571E+00 -3.66151362E-04  9.08082143E-02  3.08302316E+00
 -3.07764592E+00 -8.54309723E-02  3.13747961E+00  7.42550828E-03  2.33680404E-02
 -3.10668606E+00 -1.30153839E-01  3.11304836E+00 -3.11920572E+00  1.23996478E-01
 -9.77085010E-02  3.04607902E+00 -3.13443762E+00  9.34990245E-03  3.27630324E-02
 -3.10668607E+00 -3.11097318E+00  3.27630317E-02  4.74342439E-03  3.13443762E+00
 -3.13904410E+00 -9.34990363E-03
SymInf integers                            I   N=          26
           1           1           1           1           1           0
           0           0           0           0           0           0
           0           0           0           0           0           0
           0           0           0           0           0           0
           0           0
RotTr to input orientation                 R   N=          12
 -9.99999999E-01 -4.07412019E-06 -3.83639668E-05  4.17256529E-06 -9.99996707E-01
 -2.56643209E-03 -3.83533845E-05 -2.56643225E-03  9.99996706E-01 -1.23323154E-05
  6.88886232E-05 -3.84080381E-03
Number of contracted shells                I               76
Number of primitive shells                 I              194
Pure/Cartesian d shells                    I                1
Pure/Cartesian f shells                    I                0
Highest angular momentum                   I                2
Largest degree of contraction              I                6
Shell types                                I   N=          76
           0          -1          -1           2           0          -1
          -1           2           0          -1          -1           2
           0          -1          -1           2           0          -1
          -1           2           0          -1          -1           2
           0          -1          -1           2           0          -1
          -1           2           0          -1          -1           2
           0          -1          -1           2           0          -1
          -1           2           0           0           0          -1
          -1           2           0          -1          -1           2
           0          -1          -1           2           0           0
           0           0           0           0           0           0
           0           0           0           0           0           0
           0           0           0           0
Number of primitives per shell             I   N=          76
           6           3           1           1           6           3
           1           1           6           3           1           1
           6           3           1           1           6           3
           1           1           6           3           1           1
           6           3           1           1           6           3
           1           1           6           3           1           1
           6           3           1           1           6           3
           1           1           3           1           6           3
           1           1           6           3           1           1
           6           3           1           1           3           1
           3           1           3           1           3           1
           3           1           3           1           3           1
           3           1           3           1
Shell to atom map                          I   N=          76
           1           1           1           1           2           2
           2           2           3           3           3           3
           4           4           4           4           5           5
           5           5           6           6           6           6
           7           7           7           7           8           8
           8           8           9           9           9           9
          10          10          10          10          11          11
          11          11          12          12          13          13
          13          13          14          14          14          14
          15          15          15          15          16          16
          17          17          18          18          19          19
          20          20          21          21          22          22
          23          23          24          24
Primitive exponents                        R   N=         194
  3.04752488E+03  4.57369518E+02  1.03948685E+02  2.92101553E+01  9.28666296E+00
  3.16392696E+00  7.86827235E+00  1.88128854E+00  5.44249258E-01  1.68714478E-01
  8.00000000E-01  3.04752488E+03  4.57369518E+02  1.03948685E+02  2.92101553E+01