xxx                                                                     
Freq      RB3LYP                                                      def2SVP             
Number of atoms                            I               11
Info1-9                                    I   N=           9
          21          20        1002           0           0         100
           6          18        -502
Full Title                                 C   N=           1
xxx         
Route                                      C   N=           2
# B3LYP/def2svp opt freq
Charge                                     I                0
Multiplicity                               I                1
Number of electrons                        I               42
Number of alpha electrons                  I               21
Number of beta electrons                   I               21
Number of basis functions                  I              109
Number of independent functions            I              109
Number of point charges in /Mol/           I                0
Number of translation vectors              I                0
Atomic numbers                             I   N=          11
           6           6           6           6           6           7
           1           1           1           1           1
Nuclear charges                            R   N=          11
  6.00000000E+00  6.00000000E+00  6.00000000E+00  6.00000000E+00  6.00000000E+00
  7.00000000E+00  1.00000000E+00  1.00000000E+00  1.00000000E+00  1.00000000E+00
  1.00000000E+00
Current cartesian coordinates              R   N=          33
 -2.31437139E+00 -1.09046072E+00 -3.08148791E-32 -1.41514957E-01 -2.59645729E+00
  4.93038066E-32  2.21279430E+00 -1.40349008E+00  1.47911420E-31  2.28848132E+00
  1.23470824E+00  7.01038500E-32 -7.19738088E-16  2.55837729E+00 -9.86076132E-32
 -2.25995307E+00  1.43341606E+00 -4.93038066E-32  3.95742103E+00 -2.51010442E+00
  2.95822839E-31 -4.19033605E+00 -1.97149381E+00 -4.31408308E-32 -3.00136971E-01
 -4.65495618E+00  9.86076132E-32  4.08298569E+00  2.25565778E+00  9.80298342E-32
 -2.59778198E-03  4.63091954E+00 -9.86076132E-32
Number of symbols in /Mol/                 I                0
Force Field                                I                0
Atom Types                                 C   N=          11
                                                            
                                                            
            
Int Atom Types                             I   N=          11
           0           0           0           0           0           0
           0           0           0           0           0
MM charges                                 R   N=          11
  0.00000000E+00  0.00000000E+00  0.00000000E+00  0.00000000E+00  0.00000000E+00
  0.00000000E+00  0.00000000E+00  0.00000000E+00  0.00000000E+00  0.00000000E+00
  0.00000000E+00
Integer atomic weights                     I   N=          11
          12          12          12          12          12          14
           1           1           1           1           1
Real atomic weights                        R   N=          11
  1.20000000E+01  1.20000000E+01  1.20000000E+01  1.20000000E+01  1.20000000E+01
  1.40030740E+01  1.00782504E+00  1.00782504E+00  1.00782504E+00  1.00782504E+00
  1.00782504E+00
Atom fragment info                         I   N=          11
           0           0           0           0           0           0
           0           0           0           0           0
Atom residue num                           I   N=          11
           0           0           0           0           0           0
           0           0           0           0           0
Nuclear spins                              I   N=          11
           0           0           0           0           0           2
           1           1           1           1           1
Nuclear ZEff                               R   N=          11
 -3.60000000E+00 -3.60000000E+00 -3.60000000E+00 -3.60000000E+00 -3.60000000E+00
 -4.55000000E+00 -1.00000000E+00 -1.00000000E+00 -1.00000000E+00 -1.00000000E+00
 -1.00000000E+00
Nuclear ZNuc                               R   N=          11
  6.00000000E+00  6.00000000E+00  6.00000000E+00  6.00000000E+00  6.00000000E+00
  7.00000000E+00  1.00000000E+00  1.00000000E+00  1.00000000E+00  1.00000000E+00
  1.00000000E+00
Nuclear QMom                               R   N=          11
  0.00000000E+00  0.00000000E+00  0.00000000E+00  0.00000000E+00  0.00000000E+00
  2.04400000E+00  0.00000000E+00  0.00000000E+00  0.00000000E+00  0.00000000E+00
  0.00000000E+00
Nuclear GFac                               R   N=          11
  0.00000000E+00  0.00000000E+00  0.00000000E+00  0.00000000E+00  0.00000000E+00
  4.03761000E-01  2.79284600E+00  2.79284600E+00  2.79284600E+00  2.79284600E+00
  2.79284600E+00
MicOpt                                     I   N=          11
          -1          -1          -1          -1          -1          -1
          -1          -1          -1          -1          -1
Number of residues                         I                0
Number of secondary structures             I                0
Redundant internal dimensions              I   N=           4
          47          11          16          20
Redundant internal coordinate indices      I   N=         188
           1           2           0           0           1           6
           0           0           1           8           0           0
           2           3           0           0           2           9
           0           0           3           4           0           0
           3           7           0           0           4           5
           0           0           4          10           0           0
           5           6           0           0           5          11
           0           0           2           1           6           0
           2           1           8           0           6           1
           8           0           1           2           3           0
           1           2           9           0           3           2
           9           0           2           3           4           0
           2           3           7           0           4           3
           7           0           3           4           5           0
           3           4          10           0           5           4
          10           0           4           5           6           0
           4           5          11           0           6           5
          11           0           1           6           5           0
           6           1           2           3           6           1
           2           9           8           1           2           3
           8           1           2           9           2           1
           6           5           8           1           6           5
           1           2           3           4           1           2
           3           7           9           2           3           4
           9           2           3           7           2           3
           4           5           2           3           4          10
           7           3           4           5           7           3
           4          10           3           4           5           6
           3           4           5          11          10           4
           5           6          10           4           5          11
           4           5           6           1          11           5
           6           1
Redundant internal coordinates             R   N=          47
  2.64373425E+00  2.52446338E+00  2.07254981E+00  2.63930726E+00  2.06460133E+00
  2.63928378E+00  2.06599074E+00  2.64371831E+00  2.06460261E+00  2.52446542E+00
  2.07254388E+00  2.15531515E+00  2.09644758E+00  2.03142258E+00  2.06650945E+00
  2.09996806E+00  2.11670779E+00  2.06848368E+00  2.10732830E+00  2.10737333E+00
  2.06650476E+00  2.11673883E+00  2.09994172E+00  2.15533252E+00  2.09643922E+00
  2.03141357E+00  2.05422506E+00  0.00000000E+00  3.14159265E+00  3.14159265E+00
 -0.00000000E+00 -0.00000000E+00  3.14159265E+00 -0.00000000E+00  3.14159265E+00
  3.14159265E+00  0.00000000E+00  0.00000000E+00  3.14159265E+00  3.14159265E+00
  0.00000000E+00  0.00000000E+00  3.14159265E+00  3.14159265E+00 -0.00000000E+00
 -0.00000000E+00  3.14159265E+00
ZRed-IntVec                                I   N=          47
           0           0           0           0           0           0
           0           0           0           0           0           0
           0           0           0           0           0           0
           0           0           0           0           0           0
           0           0           0           0           0           0
           0           0           0           0           0           0
           0           0           0           0           0           0
           0           0           0           0           0
ZRed-FPVec                                 R   N=          47
  0.00000000E+00  0.00000000E+00  0.00000000E+00  0.00000000E+00  0.00000000E+00
  0.00000000E+00  0.00000000E+00  0.00000000E+00  0.00000000E+00  0.00000000E+00
  0.00000000E+00  0.00000000E+00  0.00000000E+00  0.00000000E+00  0.00000000E+00
  0.00000000E+00  0.00000000E+00  0.00000000E+00  0.00000000E+00  0.00000000E+00
  0.00000000E+00  0.00000000E+00  0.00000000E+00  0.00000000E+00  0.00000000E+00
  0.00000000E+00  0.00000000E+00  0.00000000E+00  0.00000000E+00  0.00000000E+00
  0.00000000E+00  0.00000000E+00  0.00000000E+00  0.00000000E+00  0.00000000E+00
  0.00000000E+00  0.00000000E+00  0.00000000E+00  0.00000000E+00  0.00000000E+00
  0.00000000E+00  0.00000000E+00  0.00000000E+00  0.00000000E+00  0.00000000E+00
  0.00000000E+00  0.00000000E+00
ZRed-Constraint1                           R   N=          47
  2.64373425E+00  2.52446338E+00  2.07254981E+00  2.63930726E+00  2.06460133E+00
  2.63928378E+00  2.06599074E+00  2.64371831E+00  2.06460261E+00  2.52446542E+00
  2.07254388E+00  2.15531515E+00  2.09644758E+00  2.03142258E+00  2.06650945E+00
  2.09996806E+00  2.11670779E+00  2.06848368E+00  2.10732830E+00  2.10737333E+00
  2.06650476E+00  2.11673883E+00  2.09994172E+00  2.15533252E+00  2.09643922E+00
  2.03141357E+00  2.05422506E+00  0.00000000E+00  3.14159265E+00  3.14159265E+00
 -0.00000000E+00 -0.00000000E+00  3.14159265E+00 -0.00000000E+00  3.14159265E+00
  3.14159265E+00 -0.00000000E+00  0.00000000E+00  3.14159265E+00  3.14159265E+00
  0.00000000E+00 -0.00000000E+00  3.14159265E+00  3.14159265E+00 -0.00000000E+00
  0.00000000E+00  3.14159265E+00
ZRed-Constraint2                           R   N=          47
  2.65861411E+00  2.54584907E+00  2.08736031E+00  2.63821037E+00  2.07383917E+00
  2.63801343E+00  2.07730762E+00  2.65877463E+00  2.07385379E+00  2.54621905E+00
  2.08750168E+00  2.15518218E+00  2.10830809E+00  2.01969504E+00  2.06865438E+00
  2.10073861E+00  2.11379231E+00  2.07308840E+00  2.10484662E+00  2.10525029E+00
  2.06830862E+00  2.11416623E+00  2.10071046E+00  2.15542706E+00  2.10824370E+00
  2.01951455E+00  2.04570996E+00  0.00000000E+00  3.14159265E+00  3.14159265E+00
  0.00000000E+00  0.00000000E+00  3.14159265E+00  0.00000000E+00  3.14159265E+00
  3.14159265E+00  0.00000000E+00  0.00000000E+00  3.14159265E+00  3.14159265E+00
  0.00000000E+00  0.00000000E+00  3.14159265E+00  3.14159265E+00  0.00000000E+00
  0.00000000E+00  3.14159265E+00
SymInf integers                            I   N=          26
           1           2           1           1           1           1
           1          -1           0           0           0           0
           0           0           0           0           0           0
           0           0           0           0           0           0
           0           0
RotTr to input orientation                 R   N=          12
  8.40942747E-01  5.41124104E-01  5.68547081E-17 -5.41124104E-01  8.40942747E-01
 -1.03406622E-16 -1.03767370E-16  5.61935956E-17  1.00000000E+00  1.88500600E-03
  1.02127200E-05  2.46935957E-19
Number of contracted shells                I               51
Number of primitive shells                 I               97
Pure/Cartesian d shells                    I                0
Pure/Cartesian f shells                    I                0
Highest angular momentum                   I                2
Largest degree of contraction              I                5
Shell types                                I   N=          51
           0           0           0           1           1          -2
           0           0           0           1           1          -2
           0           0           0           1           1          -2
           0           0           0           1           1          -2
           0           0           0           1           1          -2
           0           0           0           1           1          -2
           0           0           1           0           0           1
           0           0           1           0           0           1
           0           0           1
Number of primitives per shell             I   N=          51
           5           1           1           3           1           1
           5           1           1           3           1           1
           5           1           1           3           1           1
           5           1           1           3           1           1
           5           1           1           3           1           1
           5           1           1           3           1           1
           3           1           1           3           1           1
           3           1           1           3           1           1
           3           1           1
Shell to atom map                          I   N=          51
           1           1           1           1           1           1
           2           2           2           2           2           2
           3           3           3           3           3           3
           4           4           4           4           4           4
           5           5           5           5           5           5
           6           6           6           6           6           6
           7           7           7           8           8           8
           9           9           9          10          10          10
          11          11          11
Primitive exponents                        R   N=          97
  1.23840169E+03  1.86290050E+02  4.22511763E+01  1.16765579E+01  3.59305065E+00
  4.02451474E-01  1.30901827E-01  9.46809706E+00  2.01035451E+00  5.47710047E-01
  1.52686138E-01  8.00000000E-01  1.23840169E+03  1.86290050E+02  4.22511763E+01
  1.16765579E+01  3.59305065E+00  4.02451474E-01  1.30901827E-01  9.46809706E+00
  2.01035451E+00  5.47710047E-01  1.52686138E-01  8.00000000E-01  1.23840169E+03
  1.86290050E+02  4.22511763E+01  1.16765579E+01  3.59305065E+00  4.02451474E-01
  1.30901827E-01  9.46809706E+00  2.01035451E+00  5.47710047E-01  1.52686138E-01
  8.00000000E-01  1.23840169E+03  1.86290050E+02  4.22511763E+01  1.16765579E+01
  3.59305065E+00  4.02451474E-01  1.30901827E-01  9.46809706E+00  2.01035451E+00
  5.47710047E-01  1.52686138E-01  8.00000000E-01  1.23840169E+03  1.86290050E+02
  4.22511763E+01  1.16765579E+01  3.59305065E+00  4.02451474E-01  1.30901827E-01
  9.46809706E+00  2.01035451E+00  5.47710047E-01  1.52686138E-01  8.00000000E-01
  1.71284159E+03  2.57648127E+02  5.84582459E+01  1.61983679E+01  5.00526008E+00
  5.87318566E-01  1.87645923E-01  1.35714702E+01  2.92573729E+00  7.99277508E-01
  2.19543480E-01  1.00000000E+00  1.30107010E+01  1.96225720E+00  4.44537960E-01
  1.21949620E-01  8.00000000E-01  1.30107010E+01  1.96225720E+00  4.44537960E-01
  1.21949620E-01  8.00000000E-01  1.30107010E+01  1.96225720E+00  4.44537960E-01
  1.21949620E-01  8.00000000E-01  1.30107010E+01  1.96225720E+00  4.44537960E-01
  1.21949620E-01  8.00000000E-01  1.30107010E+01  1.96225720E+00  4.44537960E-01
  1.21949620E-01  8.00000000E-01
Contraction coefficients                   R   N=          97
  5.51736505E-03  4.10888286E-02  1.82253821E-01  4.68284594E-01  4.45758173E-01
  1.00000000E+00  1.00000000E+00  5.68883320E-02  3.12940593E-01  7.60650165E-01
  1.00000000E+00  1.00000000E+00  5.51736505E-03  4.10888286E-02  1.82253821E-01
  4.68284594E-01  4.45758173E-01  1.00000000E+00  1.00000000E+00  5.68883320E-02
  3.12940593E-01  7.60650165E-01  1.00000000E+00  1.00000000E+00  5.51736505E-03
  4.10888286E-02  1.82253821E-01  4.68284594E-01  4.45758173E-01  1.00000000E+00
  1.00000000E+00  5.68883320E-02  3.12940593E-01  7.60650165E-01  1.00000000E+00
  1.00000000E+00  5.51736505E-03  4.10888286E-02  1.82253821E-01  4.68284594E-01
  4.45758173E-01  1.00000000E+00  1.00000000E+00  5.68883320E-02  3.12940593E-01
  7.60650165E-01  1.00000000E+00  1.00000000E+00  5.51736505E-03  4.10888286E-02
  1.82253821E-01  4.68284594E-01  4.45758173E-01  1.00000000E+00  1.00000000E+00
  5.68883320E-02  3.12940593E-01  7.60650165E-01  1.00000000E+00  1.00000000E+00
 -5.44779958E-03 -4.06271746E-02 -1.81119623E-01 -4.68439756E-01 -4.46168463E-01
  1.00000000E+00  1.00000000E+00 -5.88481170E-02 -3.20246248E-01 -7.53282265E-01
  1.00000000E+00  1.00000000E+00  3.34854848E-02  2.34721871E-01  8.13770285E-01
  1.00000000E+00  1.00000000E+00  3.34854848E-02  2.34721871E-01  8.13770285E-01
  1.00000000E+00  1.00000000E+00  3.34854848E-02  2.34721871E-01  8.13770285E-01
  1.00000000E+00  1.00000000E+00  3.34854848E-02  2.34721871E-01  8.13770285E-01
  1.00000000E+00  1.00000000E+00  3.34854848E-02  2.34721871E-01  8.13770285E-01
  1.00000000E+00  1.00000000E+00
Coordinates of each shell                  R   N=         153
 -2.31437139E+00 -1.09046072E+00 -4.00593428E-32 -2.31437139E+00 -1.09046072E+00
 -4.00593428E-32 -2.31437139E+00 -1.09046072E+00 -4.00593428E-32 -2.31437139E+00
 -1.09046072E+00 -4.00593428E-32 -2.31437139E+00 -1.09046072E+00 -4.00593428E-32
 -2.31437139E+00 -1.09046072E+00 -4.00593428E-32 -1.41514957E-01 -2.59645729E+00
  0.00000000E+00 -1.41514957E-01 -2.59645729E+00  0.00000000E+00 -1.41514957E-01
 -2.59645729E+00  0.00000000E+00 -1.41514957E-01 -2.59645729E+00  0.00000000E+00
 -1.41514957E-01 -2.59645729E+00  0.00000000E+00 -1.41514957E-01 -2.59645729E+00
  0.00000000E+00  2.21279430E+00 -1.40349008E+00  9.86076132E-32  2.21279430E+00
 -1.40349008E+00  9.86076132E-32  2.21279430E+00 -1.40349008E+00  9.86076132E-32
  2.21279430E+00 -1.40349008E+00  9.86076132E-32  2.21279430E+00 -1.40349008E+00
  9.86076132E-32  2.21279430E+00 -1.40349008E+00  9.86076132E-32  2.28848132E+00
  1.23470824E+00  3.58222970E-32  2.28848132E+00  1.23470824E+00  3.58222970E-32
  2.28848132E+00  1.23470824E+00  3.58222970E-32  2.28848132E+00  1.23470824E+00
  3.58222970E-32  2.28848132E+00  1.23470824E+00  3.58222970E-32  2.28848132E+00
  1.23470824E+00  3.58222970E-32 -4.61167941E-16  2.55837729E+00 -4.93038066E-32
 -4.61167941E-16  2.55837729E+00 -4.93038066E-32 -4.61167941E-16  2.55837729E+00
 -4.93038066E-32 -4.61167941E-16  2.55837729E+00 -4.93038066E-32 -4.61167941E-16
  2.55837729E+00 -4.93038066E-32 -4.61167941E-16  2.55837729E+00 -4.93038066E-32
 -2.25995307E+00  1.43341606E+00 -4.93038066E-32 -2.25995307E+00  1.43341606E+00
 -4.93038066E-32 -2.25995307E+00  1.43341606E+00 -4.93038066E-32 -2.25995307E+00
  1.43341606E+00 -4.93038066E-32 -2.25995307E+00  1.43341606E+00 -4.93038066E-32
 -2.25995307E+00  1.43341606E+00 -4.93038066E-32  3.95742103E+00 -2.51010442E+00
  1.97215226E-31  3.95742103E+00 -2.51010442E+00  1.97215226E-31  3.95742103E+00
 -2.51010442E+00  1.97215226E-31 -4.19033605E+00 -1.97149381E+00 -5.54667824E-32
 -4.19033605E+00 -1.97149381E+00 -5.54667824E-32 -4.19033605E+00 -1.97149381E+00
 -5.54667824E-32 -3.00136971E-01 -4.65495618E+00  0.00000000E+00 -3.00136971E-01
 -4.65495618E+00  0.00000000E+00 -3.00136971E-01 -4.65495618E+00  0.00000000E+00
  4.08298569E+00  2.25565778E+00  4.79556556E-32  4.08298569E+00  2.25565778E+00
  4.79556556E-32  4.08298569E+00  2.25565778E+00  4.79556556E-32 -2.59778198E-03
  4.63091954E+00 -9.86076132E-32 -2.59778198E-03  4.63091954E+00 -9.86076132E-32
 -2.59778198E-03  4.63091954E+00 -9.86076132E-32
Num ILSW                                   I              100
ILSW                                       I   N=         100
           0           0           0           0           2           0
           0           0           0           0         402          -1
           5           0           0           0           2           0
           0           0           1           0           1           0
           1           0           0           0           0           0
           0           0      100000           0          -1           0
           0           0           0           0           0           0
           0           0           0           1           0           0
           0 -2000000000           1           0           0           0
           0           0           4          52           0           0
           0           0           5           0           0           0
           0           0           0           0           0           1
           0           0           0           0           0           0
           0           0           0           0           0           0
           0           0           0           0           0           0
           0           0           0           0           0           0
           0           0           0           0
Num RLSW                                   I               52
RLSW                                       R   N=          52
  8.00000000E-01  7.20000000E-01  1.00000000E+00  8.10000000E-01  2.00000000E-01
  0.00000000E+00  0.00000000E+00  1.00000000E+00  0.00000000E+00  0.00000000E+00
  0.00000000E+00  0.00000000E+00  1.00000000E+00  0.00000000E+00  0.00000000E+00
  0.00000000E+00  0.00000000E+00  1.00000000E+00  0.00000000E+00  0.00000000E+00
  0.00000000E+00  0.00000000E+00  1.00000000E+00  0.00000000E+00  0.00000000E+00
  0.00000000E+00  0.00000000E+00  1.00000000E+00  0.00000000E+00  0.00000000E+00
  0.00000000E+00  0.00000000E+00  1.00000000E+00  0.00000000E+00  0.00000000E+00
  0.00000000E+00  0.00000000E+00  0.00000000E+00  1.00000000E+00  1.00000000E+00
  0.00000000E+00  1.00000000E+00  0.00000000E+00  0.00000000E+00  0.00000000E+00
  0.00000000E+00  0.00000000E+00  0.00000000E+00  0.00000000E+00  0.00000000E+00
  0.00000000E+00  0.00000000E+00
ECP-MxAtEC                                 I           250000
ECP-MaxLECP                                I               10
ECP-MaxAtL                                 I          2250000
ECP-MxTECP                                 I         11250000
ECP-LenNCZ                                 I                0
ECP-KFirst                                 I   N=         110
           0           0           0           0           0           0
           0           0           0           0           0           0
           0           0           0           0           0           0
           0           0           0           0           0           0
           0           0           0           0           0           0
           0           0           0           0           0           0
           0           0           0           0           0           0
           0           0           0           0           0           0
           0           0           0           0           0           0
           0           0           0           0           0           0
           0           0           0           0           0           0
           0           0           0           0           0           0
           0           0           0           0           0           0
           0           0           0           0           0           0
           0           0           0           0           0           0
           0           0           0           0           0           0
           0           0           0           0           0           0
           0           0           0           0           0           0
           0           0
ECP-KLast                                  I   N=         110
           0           0           0           0           0           0
           0           0           0           0           0           0
           0           0           0           0           0           0
           0           0           0           0           0           0
           0           0           0           0           0           0
           0           0           0           0           0           0
           0           0           0           0           0           0
           0           0           0           0           0           0
           0           0           0           0           0           0
           0           0           0           0           0           0
           0           0           0           0           0           0
           0           0           0           0           0           0
           0           0           0           0           0           0
           0           0           0           0           0           0
           0           0           0           0           0           0
           0           0           0           0           0           0
           0           0           0           0           0           0
           0           0           0           0           0           0
           0           0
ECP-LMax                                   I   N=          11
           0           0           0           0           0           0
           0           0           0           0           0
ECP-LPSkip                                 I   N=          11
           1           1           1           1           1           1
           1           1           1           1           1
ECP-RNFroz                                 R   N=          11
  0.00000000E+00  0.00000000E+00  0.00000000E+00  0.00000000E+00  0.00000000E+00
  0.00000000E+00  0.00000000E+00  0.00000000E+00  0.00000000E+00  0.00000000E+00
  0.00000000E+00
ECP-NLP                                    I                0
ECP-CLP1                                   R      0.000000000000000E+00
ECP-CLP2                                   R      0.000000000000000E+00
ECP-ZLP                                    R      0.000000000000000E+00
MxBond                                     I                3
NBond                                      I   N=          11
           3           3           3           3           3           2
           1           1           1           1           1
IBond                                      I   N=          33
           2           6           8           1           3           9
           2           4           7           3           5          10
           4           6          11           1           5           0
           3           0           0           1           0           0
           2           0           0           4           0           0
           5           0           0
RBond                                      R   N=          33
  1.50000000E+00  1.50000000E+00  1.00000000E+00  1.50000000E+00  1.50000000E+00
  1.00000000E+00  1.50000000E+00  1.50000000E+00  1.00000000E+00  1.50000000E+00
  1.50000000E+00  1.00000000E+00  1.50000000E+00  1.50000000E+00  1.00000000E+00
  1.50000000E+00  1.50000000E+00  0.00000000E+00  1.00000000E+00  0.00000000E+00
  0.00000000E+00  1.00000000E+00  0.00000000E+00  0.00000000E+00  1.00000000E+00
  0.00000000E+00  0.00000000E+00  1.00000000E+00  0.00000000E+00  0.00000000E+00
  1.00000000E+00  0.00000000E+00  0.00000000E+00
Virial Ratio                               R      2.011113851538212E+00
SCF Energy                                 R     -2.481052998450070E+02
Total Energy                               R     -2.481052998450070E+02
RMS Force                                  R      1.731797316415641E-04
RMS Density                                R      2.897571003886974E-09
NImag                                      I                0
Job Status                                 I                1
Nuclear derivative order                   I                2
External E-field                           R   N=          35
  0.00000000E+00  0.00000000E+00  0.00000000E+00  0.00000000E+00  0.00000000E+00
  0.00000000E+00  0.00000000E+00  0.00000000E+00  0.00000000E+00  0.00000000E+00
  0.00000000E+00  0.00000000E+00  0.00000000E+00  0.00000000E+00  0.00000000E+00
  0.00000000E+00  0.00000000E+00  0.00000000E+00  0.00000000E+00  0.00000000E+00
  0.00000000E+00  0.00000000E+00  0.00000000E+00  0.00000000E+00  0.00000000E+00
  0.00000000E+00  0.00000000E+00  0.00000000E+00  0.00000000E+00  0.00000000E+00
  0.00000000E+00  0.00000000E+00  0.00000000E+00  0.00000000E+00  0.00000000E+00
IOpCl                                      I                0
IROHF                                      I                0
Alpha Orbital Energies                     R   N=         109
 -1.43222916E+01 -1.02253449E+01 -1.02253326E+01 -1.02132099E+01 -1.02032846E+01
 -1.02032702E+01 -9.36339645E-01 -7.99517148E-01 -7.56441186E-01 -6.27946372E-01
 -6.24865102E-01 -5.29647707E-01 -4.86041616E-01 -4.68949882E-01 -4.32492567E-01
 -4.07734046E-01 -4.03066776E-01 -3.69420172E-01 -2.94572557E-01 -2.70083923E-01
 -2.55544513E-01 -3.17984186E-02 -2.11646424E-02  5.86222385E-02  9.31042368E-02
  1.10301081E-01  1.33746346E-01  1.33874611E-01  1.39847017E-01  2.16123835E-01