xxx                                                                     
Freq      UB3LYP                                                      def2SVP             
Number of atoms                            I               11
Info1-9                                    I   N=           9
          21          20        1002           0           0         100
           6          18        -502
Full Title                                 C   N=           1
xxx         
Route                                      C   N=           2
# B3LYP/def2svp opt freq
Charge                                     I                0
Multiplicity                               I                3
Number of electrons                        I               42
Number of alpha electrons                  I               22
Number of beta electrons                   I               20
Number of basis functions                  I              109
Number of independent functions            I              109
Number of point charges in /Mol/           I                0
Number of translation vectors              I                0
Atomic numbers                             I   N=          11
           6           6           6           6           6           7
           1           1           1           1           1
Nuclear charges                            R   N=          11
  6.00000000E+00  6.00000000E+00  6.00000000E+00  6.00000000E+00  6.00000000E+00
  7.00000000E+00  1.00000000E+00  1.00000000E+00  1.00000000E+00  1.00000000E+00
  1.00000000E+00
Current cartesian coordinates              R   N=          33
 -2.27276251E+00 -1.37332102E+00  2.07167301E-01 -2.32376207E+00  1.21602483E+00
  6.54796207E-02  2.02530110E-03  2.57290211E+00 -2.20914993E-01  2.32572513E+00
  1.21292076E+00  6.50398565E-02  2.27060238E+00 -1.37645999E+00  2.06793197E-01
 -1.86801105E-03 -2.48707372E+00 -5.18593633E-01  3.34197683E-03  4.63391728E+00
 -2.55947019E-01 -3.88653094E+00 -2.58119878E+00  6.52672927E-01 -4.11287127E+00
  2.21833656E+00  3.18177439E-01  4.11617267E+00  2.21257683E+00  3.18708883E-01
  3.88199424E+00 -2.58651600E+00  6.55153311E-01
Number of symbols in /Mol/                 I                0
Force Field                                I                0
Atom Types                                 C   N=          11
                                                            
                                                            
            
Int Atom Types                             I   N=          11
           0           0           0           0           0           0
           0           0           0           0           0
MM charges                                 R   N=          11
  0.00000000E+00  0.00000000E+00  0.00000000E+00  0.00000000E+00  0.00000000E+00
  0.00000000E+00  0.00000000E+00  0.00000000E+00  0.00000000E+00  0.00000000E+00
  0.00000000E+00
Integer atomic weights                     I   N=          11
          12          12          12          12          12          14
           1           1           1           1           1
Real atomic weights                        R   N=          11
  1.20000000E+01  1.20000000E+01  1.20000000E+01  1.20000000E+01  1.20000000E+01
  1.40030740E+01  1.00782504E+00  1.00782504E+00  1.00782504E+00  1.00782504E+00
  1.00782504E+00
Atom fragment info                         I   N=          11
           0           0           0           0           0           0
           0           0           0           0           0
Atom residue num                           I   N=          11
           0           0           0           0           0           0
           0           0           0           0           0
Nuclear spins                              I   N=          11
           0           0           0           0           0           2
           1           1           1           1           1
Nuclear ZEff                               R   N=          11
 -3.60000000E+00 -3.60000000E+00 -3.60000000E+00 -3.60000000E+00 -3.60000000E+00
 -4.55000000E+00 -1.00000000E+00 -1.00000000E+00 -1.00000000E+00 -1.00000000E+00
 -1.00000000E+00
Nuclear ZNuc                               R   N=          11
  6.00000000E+00  6.00000000E+00  6.00000000E+00  6.00000000E+00  6.00000000E+00
  7.00000000E+00  1.00000000E+00  1.00000000E+00  1.00000000E+00  1.00000000E+00
  1.00000000E+00
Nuclear QMom                               R   N=          11
  0.00000000E+00  0.00000000E+00  0.00000000E+00  0.00000000E+00  0.00000000E+00
  2.04400000E+00  0.00000000E+00  0.00000000E+00  0.00000000E+00  0.00000000E+00
  0.00000000E+00
Nuclear GFac                               R   N=          11
  0.00000000E+00  0.00000000E+00  0.00000000E+00  0.00000000E+00  0.00000000E+00
  4.03761000E-01  2.79284600E+00  2.79284600E+00  2.79284600E+00  2.79284600E+00
  2.79284600E+00
MicOpt                                     I   N=          11
          -1          -1          -1          -1          -1          -1
          -1          -1          -1          -1          -1
Number of residues                         I                0
Number of secondary structures             I                0
Redundant internal dimensions              I   N=           4
          47          11          16          20
Redundant internal coordinate indices      I   N=         188
           1           2           0           0           1           6
           0           0           1           8           0           0
           2           3           0           0           2           9
           0           0           3           4           0           0
           3           7           0           0           4           5
           0           0           4          10           0           0
           5           6           0           0           5          11
           0           0           2           1           6           0
           2           1           8           0           6           1
           8           0           1           2           3           0
           1           2           9           0           3           2
           9           0           2           3           4           0
           2           3           7           0           4           3
           7           0           3           4           5           0
           3           4          10           0           5           4
          10           0           4           5           6           0
           4           5          11           0           6           5
          11           0           1           6           5           0
           6           1           2           3           6           1
           2           9           8           1           2           3
           8           1           2           9           2           1
           6           5           8           1           6           5
           1           2           3           4           1           2
           3           7           9           2           3           4
           9           2           3           7           2           3
           4           5           2           3           4          10
           7           3           4           5           7           3
           4          10           3           4           5           6
           3           4           5          11          10           4
           5           6          10           4           5          11
           4           5           6           1          11           5
           6           1
Redundant internal coordinates             R   N=          47
  2.59372093E+00  2.63137528E+00  2.06438672E+00  2.70784503E+00  2.06625186E+00
  2.70756354E+00  2.06131329E+00  2.59384371E+00  2.06624360E+00  2.63130587E+00
  2.06442390E+00  2.00914751E+00  2.19018029E+00  2.07887505E+00  2.08189424E+00
  2.08818612E+00  2.11013128E+00  2.06493415E+00  2.09828484E+00  2.09839937E+00
  2.08169204E+00  2.11020465E+00  2.08825910E+00  2.00935881E+00  2.19004046E+00
  2.07896793E+00  2.08361472E+00 -2.46171239E-01  2.97745613E+00  3.00406808E+00
 -5.54898521E-02  7.11475140E-01 -2.53134565E+00 -1.75554719E-01 -3.09606227E+00
  2.88294312E+00 -3.75644320E-02  1.75511570E-01 -2.88221456E+00  3.09600413E+00
  3.82779978E-02  2.46258333E-01 -3.00217196E+00 -2.97813067E+00  5.66243460E-02
 -7.11579799E-01  2.52957147E+00
ZRed-IntVec                                I   N=          47
           0           0           0           0           0           0
           0           0           0           0           0           0
           0           0           0           0           0           0
           0           0           0           0           0           0
           0           0           0           0           0           0
           0           0           0           0           0           0
           0           0           0           0           0           0
           0           0           0           0           0
ZRed-FPVec                                 R   N=          47
  0.00000000E+00  0.00000000E+00  0.00000000E+00  0.00000000E+00  0.00000000E+00
  0.00000000E+00  0.00000000E+00  0.00000000E+00  0.00000000E+00  0.00000000E+00
  0.00000000E+00  0.00000000E+00  0.00000000E+00  0.00000000E+00  0.00000000E+00
  0.00000000E+00  0.00000000E+00  0.00000000E+00  0.00000000E+00  0.00000000E+00
  0.00000000E+00  0.00000000E+00  0.00000000E+00  0.00000000E+00  0.00000000E+00
  0.00000000E+00  0.00000000E+00  0.00000000E+00  0.00000000E+00  0.00000000E+00
  0.00000000E+00  0.00000000E+00  0.00000000E+00  0.00000000E+00  0.00000000E+00
  0.00000000E+00  0.00000000E+00  0.00000000E+00  0.00000000E+00  0.00000000E+00
  0.00000000E+00  0.00000000E+00  0.00000000E+00  0.00000000E+00  0.00000000E+00
  0.00000000E+00  0.00000000E+00
ZRed-Constraint1                           R   N=          47
  2.59372093E+00  2.63137528E+00  2.06438672E+00  2.70784503E+00  2.06625186E+00
  2.70756354E+00  2.06131329E+00  2.59384371E+00  2.06624360E+00  2.63130587E+00
  2.06442390E+00  2.00914751E+00  2.19018029E+00  2.07887505E+00  2.08189424E+00
  2.08818612E+00  2.11013128E+00  2.06493415E+00  2.09828484E+00  2.09839937E+00
  2.08169204E+00  2.11020465E+00  2.08825910E+00  2.00935881E+00  2.19004046E+00
  2.07896793E+00  2.08361472E+00 -2.46171239E-01  2.97745613E+00  3.00406808E+00
 -5.54898521E-02  7.11475140E-01 -2.53134565E+00 -1.75554719E-01 -3.09606227E+00
  2.88294312E+00 -3.75644320E-02  1.75511570E-01 -2.88221456E+00  3.09600413E+00
  3.82779978E-02  2.46258333E-01 -3.00217196E+00 -2.97813067E+00  5.66243460E-02
 -7.11579799E-01  2.52957147E+00
ZRed-Constraint2                           R   N=          47
  2.65861411E+00  2.62733616E+00  2.08736031E+00  2.63821037E+00  2.07383917E+00
  2.63801343E+00  2.07730762E+00  2.65877463E+00  2.07385379E+00  2.54621904E+00
  2.08750168E+00  2.13640067E+00  2.10830809E+00  2.02155130E+00  2.06865438E+00
  2.10073861E+00  2.11379231E+00  2.07308840E+00  2.10484662E+00  2.10525029E+00
  2.06830862E+00  2.11416623E+00  2.10071046E+00  2.15542707E+00  2.10824370E+00
  2.01951454E+00  1.99497540E+00 -2.04907794E-01  2.93668486E+00  3.14159265E+00
  0.00000000E+00  3.90741514E-01 -2.94627109E+00  0.00000000E+00  3.14159265E+00
  3.14159265E+00  0.00000000E+00  0.00000000E+00  3.14159265E+00  3.14159265E+00
  0.00000000E+00  2.14199026E-01 -2.92739363E+00 -2.92739363E+00  2.14199020E-01
 -3.95853800E-01  2.74573886E+00
SymInf integers                            I   N=          26
           1           1           1           1           1           0
           0           0           0           0           0           0
           0           0           0           0           0           0
           0           0           0           0           0           0
           0           0
RotTr to input orientation                 R   N=          12
 -5.61570537E-03  9.99826077E-01 -1.77842504E-02  9.98590887E-01  4.66848402E-03
 -5.28625115E-02 -5.27702920E-02 -1.80560507E-02 -9.98443426E-01  3.53491918E-02
  3.74963624E-03  1.59564632E-01
Number of contracted shells                I               51
Number of primitive shells                 I               97
Pure/Cartesian d shells                    I                0
Pure/Cartesian f shells                    I                0
Highest angular momentum                   I                2
Largest degree of contraction              I                5
Shell types                                I   N=          51
           0           0           0           1           1          -2
           0           0           0           1           1          -2
           0           0           0           1           1          -2
           0           0           0           1           1          -2
           0           0           0           1           1          -2
           0           0           0           1           1          -2
           0           0           1           0           0           1
           0           0           1           0           0           1
           0           0           1
Number of primitives per shell             I   N=          51
           5           1           1           3           1           1
           5           1           1           3           1           1
           5           1           1           3           1           1
           5           1           1           3           1           1
           5           1           1           3           1           1
           5           1           1           3           1           1
           3           1           1           3           1           1
           3           1           1           3           1           1
           3           1           1
Shell to atom map                          I   N=          51
           1           1           1           1           1           1
           2           2           2           2           2           2
           3           3           3           3           3           3
           4           4           4           4           4           4
           5           5           5           5           5           5
           6           6           6           6           6           6
           7           7           7           8           8           8
           9           9           9          10          10          10
          11          11          11
Primitive exponents                        R   N=          97
  1.23840169E+03  1.86290050E+02  4.22511763E+01  1.16765579E+01  3.59305065E+00
  4.02451474E-01  1.30901827E-01  9.46809706E+00  2.01035451E+00  5.47710047E-01
  1.52686138E-01  8.00000000E-01  1.23840169E+03  1.86290050E+02  4.22511763E+01
  1.16765579E+01  3.59305065E+00  4.02451474E-01  1.30901827E-01  9.46809706E+00
  2.01035451E+00  5.47710047E-01  1.52686138E-01  8.00000000E-01  1.23840169E+03
  1.86290050E+02  4.22511763E+01  1.16765579E+01  3.59305065E+00  4.02451474E-01
  1.30901827E-01  9.46809706E+00  2.01035451E+00  5.47710047E-01  1.52686138E-01
  8.00000000E-01  1.23840169E+03  1.86290050E+02  4.22511763E+01  1.16765579E+01
  3.59305065E+00  4.02451474E-01  1.30901827E-01  9.46809706E+00  2.01035451E+00
  5.47710047E-01  1.52686138E-01  8.00000000E-01  1.23840169E+03  1.86290050E+02
  4.22511763E+01  1.16765579E+01  3.59305065E+00  4.02451474E-01  1.30901827E-01
  9.46809706E+00  2.01035451E+00  5.47710047E-01  1.52686138E-01  8.00000000E-01
  1.71284159E+03  2.57648127E+02  5.84582459E+01  1.61983679E+01  5.00526008E+00
  5.87318566E-01  1.87645923E-01  1.35714702E+01  2.92573729E+00  7.99277508E-01
  2.19543480E-01  1.00000000E+00  1.30107010E+01  1.96225720E+00  4.44537960E-01
  1.21949620E-01  8.00000000E-01  1.30107010E+01  1.96225720E+00  4.44537960E-01
  1.21949620E-01  8.00000000E-01  1.30107010E+01  1.96225720E+00  4.44537960E-01
  1.21949620E-01  8.00000000E-01  1.30107010E+01  1.96225720E+00  4.44537960E-01
  1.21949620E-01  8.00000000E-01  1.30107010E+01  1.96225720E+00  4.44537960E-01
  1.21949620E-01  8.00000000E-01
Contraction coefficients                   R   N=          97
  5.51736505E-03  4.10888286E-02  1.82253821E-01  4.68284594E-01  4.45758173E-01
  1.00000000E+00  1.00000000E+00  5.68883320E-02  3.12940593E-01  7.60650165E-01
  1.00000000E+00  1.00000000E+00  5.51736505E-03  4.10888286E-02  1.82253821E-01
  4.68284594E-01  4.45758173E-01  1.00000000E+00  1.00000000E+00  5.68883320E-02
  3.12940593E-01  7.60650165E-01  1.00000000E+00  1.00000000E+00  5.51736505E-03
  4.10888286E-02  1.82253821E-01  4.68284594E-01  4.45758173E-01  1.00000000E+00
  1.00000000E+00  5.68883320E-02  3.12940593E-01  7.60650165E-01  1.00000000E+00
  1.00000000E+00  5.51736505E-03  4.10888286E-02  1.82253821E-01  4.68284594E-01
  4.45758173E-01  1.00000000E+00  1.00000000E+00  5.68883320E-02  3.12940593E-01
  7.60650165E-01  1.00000000E+00  1.00000000E+00  5.51736505E-03  4.10888286E-02
  1.82253821E-01  4.68284594E-01  4.45758173E-01  1.00000000E+00  1.00000000E+00
  5.68883320E-02  3.12940593E-01  7.60650165E-01  1.00000000E+00  1.00000000E+00
 -5.44779958E-03 -4.06271746E-02 -1.81119623E-01 -4.68439756E-01 -4.46168463E-01
  1.00000000E+00  1.00000000E+00 -5.88481170E-02 -3.20246248E-01 -7.53282265E-01
  1.00000000E+00  1.00000000E+00  3.34854848E-02  2.34721871E-01  8.13770285E-01
  1.00000000E+00  1.00000000E+00  3.34854848E-02  2.34721871E-01  8.13770285E-01
  1.00000000E+00  1.00000000E+00  3.34854848E-02  2.34721871E-01  8.13770285E-01
  1.00000000E+00  1.00000000E+00  3.34854848E-02  2.34721871E-01  8.13770285E-01
  1.00000000E+00  1.00000000E+00  3.34854848E-02  2.34721871E-01  8.13770285E-01
  1.00000000E+00  1.00000000E+00
Coordinates of each shell                  R   N=         153
 -2.27276251E+00 -1.37332102E+00  2.07167301E-01 -2.27276251E+00 -1.37332102E+00
  2.07167301E-01 -2.27276251E+00 -1.37332102E+00  2.07167301E-01 -2.27276251E+00
 -1.37332102E+00  2.07167301E-01 -2.27276251E+00 -1.37332102E+00  2.07167301E-01
 -2.27276251E+00 -1.37332102E+00  2.07167301E-01 -2.32376207E+00  1.21602483E+00
  6.54796207E-02 -2.32376207E+00  1.21602483E+00  6.54796207E-02 -2.32376207E+00
  1.21602483E+00  6.54796207E-02 -2.32376207E+00  1.21602483E+00  6.54796207E-02
 -2.32376207E+00  1.21602483E+00  6.54796207E-02 -2.32376207E+00  1.21602483E+00
  6.54796207E-02  2.02530110E-03  2.57290211E+00 -2.20914993E-01  2.02530110E-03
  2.57290211E+00 -2.20914993E-01  2.02530110E-03  2.57290211E+00 -2.20914993E-01
  2.02530110E-03  2.57290211E+00 -2.20914993E-01  2.02530110E-03  2.57290211E+00
 -2.20914993E-01  2.02530110E-03  2.57290211E+00 -2.20914993E-01  2.32572513E+00
  1.21292076E+00  6.50398565E-02  2.32572513E+00  1.21292076E+00  6.50398565E-02
  2.32572513E+00  1.21292076E+00  6.50398565E-02  2.32572513E+00  1.21292076E+00
  6.50398565E-02  2.32572513E+00  1.21292076E+00  6.50398565E-02  2.32572513E+00
  1.21292076E+00  6.50398565E-02  2.27060238E+00 -1.37645999E+00  2.06793197E-01
  2.27060238E+00 -1.37645999E+00  2.06793197E-01  2.27060238E+00 -1.37645999E+00
  2.06793197E-01  2.27060238E+00 -1.37645999E+00  2.06793197E-01  2.27060238E+00
 -1.37645999E+00  2.06793197E-01  2.27060238E+00 -1.37645999E+00  2.06793197E-01
 -1.86801105E-03 -2.48707372E+00 -5.18593633E-01 -1.86801105E-03 -2.48707372E+00
 -5.18593633E-01 -1.86801105E-03 -2.48707372E+00 -5.18593633E-01 -1.86801105E-03
 -2.48707372E+00 -5.18593633E-01 -1.86801105E-03 -2.48707372E+00 -5.18593633E-01
 -1.86801105E-03 -2.48707372E+00 -5.18593633E-01  3.34197683E-03  4.63391728E+00
 -2.55947019E-01  3.34197683E-03  4.63391728E+00 -2.55947019E-01  3.34197683E-03
  4.63391728E+00 -2.55947019E-01 -3.88653094E+00 -2.58119878E+00  6.52672927E-01
 -3.88653094E+00 -2.58119878E+00  6.52672927E-01 -3.88653094E+00 -2.58119878E+00
  6.52672927E-01 -4.11287127E+00  2.21833656E+00  3.18177439E-01 -4.11287127E+00
  2.21833656E+00  3.18177439E-01 -4.11287127E+00  2.21833656E+00  3.18177439E-01
  4.11617267E+00  2.21257683E+00  3.18708883E-01  4.11617267E+00  2.21257683E+00
  3.18708883E-01  4.11617267E+00  2.21257683E+00  3.18708883E-01  3.88199424E+00
 -2.58651600E+00  6.55153311E-01  3.88199424E+00 -2.58651600E+00  6.55153311E-01
  3.88199424E+00 -2.58651600E+00  6.55153311E-01
Num ILSW                                   I              100
ILSW                                       I   N=         100
           1           0           0           0           2           0
           0           0           0           0         402          -1
           5           0           0           0           2           0
           0           0           1           0           1           0
           1           0           0           0           0           0
           0           0      100000           0          -1           0
           0           0           0           0           0           0
           0           0           0           1           0           0
           0 -2000000000           1           0           0           0
           0           0           4          52           0           0
           0           0           5           0           0           0
           0           0           0           0           0           1
           0           0           0           0           0           0
           0           0           0           0           0           0
           0           0           0           0           0           0
           0           0           0           0           0           0
           0           0           0           0
Num RLSW                                   I               52
RLSW                                       R   N=          52
  8.00000000E-01  7.20000000E-01  1.00000000E+00  8.10000000E-01  2.00000000E-01
  0.00000000E+00  0.00000000E+00  1.00000000E+00  0.00000000E+00  0.00000000E+00
  0.00000000E+00  0.00000000E+00  1.00000000E+00  0.00000000E+00  0.00000000E+00
  0.00000000E+00  0.00000000E+00  1.00000000E+00  0.00000000E+00  0.00000000E+00
  0.00000000E+00  0.00000000E+00  1.00000000E+00  0.00000000E+00  0.00000000E+00
  0.00000000E+00  0.00000000E+00  1.00000000E+00  0.00000000E+00  0.00000000E+00
  0.00000000E+00  0.00000000E+00  1.00000000E+00  0.00000000E+00  0.00000000E+00
  0.00000000E+00  0.00000000E+00  0.00000000E+00  1.00000000E+00  1.00000000E+00
  0.00000000E+00  1.00000000E+00  0.00000000E+00  0.00000000E+00  0.00000000E+00
  0.00000000E+00  0.00000000E+00  0.00000000E+00  0.00000000E+00  0.00000000E+00
  0.00000000E+00  0.00000000E+00
ECP-MxAtEC                                 I           250000
ECP-MaxLECP                                I               10
ECP-MaxAtL                                 I          2250000
ECP-MxTECP                                 I         11250000
ECP-LenNCZ                                 I                0
ECP-KFirst                                 I   N=         110
           0           0           0           0           0           0
           0           0           0           0           0           0
           0           0           0           0           0           0
           0           0           0           0           0           0
           0           0           0           0           0           0
           0           0           0           0           0           0
           0           0           0           0           0           0
           0           0           0           0           0           0
           0           0           0           0           0           0
           0           0           0           0           0           0
           0           0           0           0           0           0
           0           0           0           0           0           0
           0           0           0           0           0           0
           0           0           0           0           0           0
           0           0           0           0           0           0
           0           0           0           0           0           0
           0           0           0           0           0           0
           0           0           0           0           0           0
           0           0
ECP-KLast                                  I   N=         110
           0           0           0           0           0           0
           0           0           0           0           0           0
           0           0           0           0           0           0
           0           0           0           0           0           0
           0           0           0           0           0           0
           0           0           0           0           0           0
           0           0           0           0           0           0
           0           0           0           0           0           0
           0           0           0           0           0           0
           0           0           0           0           0           0
           0           0           0           0           0           0
           0           0           0           0           0           0
           0           0           0           0           0           0
           0           0           0           0           0           0
           0           0           0           0           0           0
           0           0           0           0           0           0
           0           0           0           0           0           0
           0           0           0           0           0           0
           0           0
ECP-LMax                                   I   N=          11
           0           0           0           0           0           0
           0           0           0           0           0
ECP-LPSkip                                 I   N=          11
           1           1           1           1           1           1
           1           1           1           1           1
ECP-RNFroz                                 R   N=          11
  0.00000000E+00  0.00000000E+00  0.00000000E+00  0.00000000E+00  0.00000000E+00
  0.00000000E+00  0.00000000E+00  0.00000000E+00  0.00000000E+00  0.00000000E+00
  0.00000000E+00
ECP-NLP                                    I                0
ECP-CLP1                                   R      0.000000000000000E+00
ECP-CLP2                                   R      0.000000000000000E+00
ECP-ZLP                                    R      0.000000000000000E+00
MxBond                                     I                3
NBond                                      I   N=          11
           3           3           3           3           3           2
           1           1           1           1           1
IBond                                      I   N=          33
           2           6           8           1           3           9
           2           4           7           3           5          10
           4           6          11           1           5           0
           3           0           0           1           0           0
           2           0           0           4           0           0
           5           0           0
RBond                                      R   N=          33
  1.50000000E+00  1.00000000E+00  1.00000000E+00  1.50000000E+00  1.50000000E+00
  1.00000000E+00  1.50000000E+00  1.50000000E+00  1.00000000E+00  1.50000000E+00
  1.50000000E+00  1.00000000E+00  1.50000000E+00  1.50000000E+00  1.00000000E+00
  1.00000000E+00  1.50000000E+00  0.00000000E+00  1.00000000E+00  0.00000000E+00
  0.00000000E+00  1.00000000E+00  0.00000000E+00  0.00000000E+00  1.00000000E+00
  0.00000000E+00  0.00000000E+00  1.00000000E+00  0.00000000E+00  0.00000000E+00
  1.00000000E+00  0.00000000E+00  0.00000000E+00
Virial Ratio                               R      2.010881212499962E+00
SCF Energy                                 R     -2.479706778114804E+02
Total Energy                               R     -2.479706778114804E+02
S**2                                       R      2.022067753035664E+00
S**2 after annihilation                    R      2.000240694092816E+00
RMS Force                                  R      2.140052053027347E-05
RMS Density                                R      2.220039620254847E-09
NImag                                      I                0
Job Status                                 I                1
Nuclear derivative order                   I                2
External E-field                           R   N=          35
  0.00000000E+00  0.00000000E+00  0.00000000E+00  0.00000000E+00  0.00000000E+00
  0.00000000E+00  0.00000000E+00  0.00000000E+00  0.00000000E+00  0.00000000E+00
  0.00000000E+00  0.00000000E+00  0.00000000E+00  0.00000000E+00  0.00000000E+00
  0.00000000E+00  0.00000000E+00  0.00000000E+00  0.00000000E+00  0.00000000E+00
  0.00000000E+00  0.00000000E+00  0.00000000E+00  0.00000000E+00  0.00000000E+00
  0.00000000E+00  0.00000000E+00  0.00000000E+00  0.00000000E+00  0.00000000E+00
  0.00000000E+00  0.00000000E+00  0.00000000E+00  0.00000000E+00  0.00000000E+00
IOpCl                                      I                1
IROHF                                      I                0
Alpha Orbital Energies                     R   N=         109
 -1.43769798E+01 -1.02261019E+01 -1.02260734E+01 -1.01991165E+01 -1.01990818E+01
 -1.01913656E+01 -9.51960966E-01 -7.84407985E-01 -7.66185558E-01 -6.29492973E-01
 -6.20034994E-01 -5.34612557E-01 -4.81597105E-01 -4.74681544E-01 -4.49680969E-01
 -4.20229834E-01 -4.03897216E-01 -3.72422481E-01 -3.16829629E-01 -2.99282492E-01